% Model:              M -220721 - Diapharagm.mph
% Version:            COMSOL 6.0.0.405
% Date:               Jul 28 2022, 22:02
% Dimension:          1
% Nodes:              580
% Expressions:        1
% Description:        Global
% freq (Hz)               FEM-2DX
100                       9.73299241054699E-6
101.15794542598982        9.866494020116268E-6
102.32929922807536        1.0002364305798998E-5
103.5142166679344         1.014066543073706E-5
104.71285480508996        1.0281462460070501E-5
105.92537251772886        1.0424822575116568E-5
107.1519305237606         1.057081554228586E-5
108.39269140212039        1.0719514107931255E-5
109.64781961431851        1.0870993652794932E-5
110.9174815262401         1.1025332816004313E-5
112.2018454301963         1.1182613184048426E-5
113.50108156723155        1.1342919844632694E-5
114.81536214968828        1.1506341359264541E-5
116.14486138403426        1.1672969931622028E-5
117.48975549395291        1.1842901811427974E-5
118.85022274370189        1.2016237157837346E-5
120.22644346174131        1.2193080647175287E-5
121.6186000646368         1.2373541483134008E-5
123.02687708123811        1.2557733532729233E-5
124.45146117713857        1.2745776081900585E-5
125.89254117941675        1.293779365417035E-5
127.35030810166616        1.3133916264713443E-5
128.82495516931337        1.3334280321544871E-5
130.31667784523           1.3539028411098308E-5
131.82567385564073        1.374830992905942E-5
133.3521432163324         1.3962281512673484E-5
134.89628825916532        1.4181107349837148E-5
136.4583136588924         1.4404959758268322E-5
138.03842646028852        1.4634019613887594E-5
139.63683610559377        1.4868477063866549E-5
141.2537544622754         1.5108531654562048E-5
142.8893958511102         1.535439362089915E-5
144.5439770745928         1.5606284209847344E-5
146.21771744567184        1.5864436188917775E-5
147.91083881682073        1.6129095193734112E-5
149.6235656094433         1.6400520135669272E-5
151.35612484362088        1.6678984292955137E-5
153.10874616820303        1.6964776284924047E-5
154.88166189124811        1.7258201386517698E-5
156.67510701081486        1.755958238711378E-5
158.48931924611142        1.786926066158683E-5
160.32453906900417        1.8187598777871728E-5
162.18100973589299        1.851498057461242E-5
164.05897731995387        1.8851813470871172E-5
165.95869074375614        1.9198530936677105E-5
167.88040181225605        1.9555592887807078E-5
169.82436524617444        1.9923489754012673E-5
171.79083871575875        2.0302743655101453E-5
173.78008287493762        2.0693911246935605E-5
175.7923613958693         2.1097587299561385E-5
177.82794100389228        2.151440701131516E-5
179.88709151287873        2.1945050486031236E-5
181.97008586099827        2.239024581642326E-5
184.07720014689562        2.285077417407602E-5
186.20871366628674        2.3327474274649656E-5
188.36490894898           2.382124790350705E-5
190.54607179632484        2.4333065965837365E-5
192.75249131909365        2.486397534677522E-5
194.98445997580455        2.5415106026572867E-5
197.24227361148533        2.5987680368573052E-5
199.52623149688787        2.658302153057338E-5
201.83663636815618        2.7202565367233266E-5
204.17379446695296        2.7847871405544442E-5
206.53801558105292        2.852063741729299E-5
208.92961308540387        2.9222714800728826E-5
211.34890398366477        2.9956125910405978E-5
213.79620895022325        3.072308502408247E-5
216.271852372702          3.152602070397126E-5
218.77616239495518        3.2367603426504216E-5
221.30947096056389        3.3250775561210416E-5
223.872113856834          3.417878700151167E-5
226.46443075930597        3.51552368845202E-5
229.08676527677724        3.61841209767172E-5
231.73946499684797        3.726988899680696E-5
234.42288153199226        3.841750967013444E-5
237.13737056616552        3.963254924903379E-5
239.88329190194898        4.0921264586359485E-5
242.66100950824142        4.229071273154476E-5
245.4708915685031         4.37488819891566E-5
248.31331052955704        4.530485523532555E-5
251.18864315095797        4.6968997737508344E-5
254.09727055493065        4.875319646925425E-5
257.03957827688646        5.067114837513239E-5
260.0159563165272         5.273871641533372E-5
263.02679918953817        5.497437941924375E-5
266.0725059798809         5.739979164731439E-5
269.1534803926917         6.004049566243269E-5
272.27013080779125        6.292683507707071E-5
275.4228703338166         6.60951417089673E-5
278.61211686297696        6.958928356056594E-5
281.8382931264455         7.346273125163492E-5
285.10182675039096        7.778133696152976E-5
288.40315031266056        8.262712742604824E-5
291.7427014001166         8.810361731532015E-5
295.1209226666387         9.434330970937868E-5
298.538261891796          1.0151863114269392E-4
301.9951720402016         1.0985818446464033E-4
305.49211132155125        1.196716443021407E-4
309.0295432513592         1.3138921027611606E-4
312.6079367123956         1.4562654602375393E-4
316.22776601683796        1.6329680684172652E-4
319.88951096913974        1.8581500880510322E-4
323.5936569296281         2.154977117779817E-4
327.3406948788383         2.564170735077919E-4
331.1311214825911         3.1645256322635217E-4
334.9654391578276         4.130982128286645E-4
338.84415613920277        5.945637293434381E-4
342.76778654645045        0.0010599288111723998
346.73685045253166        0.004870883541957439
350.75187395256796        0.0018773692681232316
354.8133892335753         7.870805315094355E-4
358.92193464500536        4.979178876812604E-4
363.0780547701014         3.641279479297078E-4
367.2823004980846         2.8699497324519087E-4
371.53522909717276        2.368132380721411E-4
375.8374042884443         2.0155423198112122E-4
380.1893963205613         1.754203371505585E-4
384.5917820453535         1.5527286115854183E-4
389.04514499428046        1.392645051771261E-4
393.55007545577723        1.2623714594012288E-4
398.1071705534973         1.1542786703707102E-4
402.71703432545905        1.063136246188007E-4
407.3802778041126         9.852385049209458E-5
412.0975190973304         9.178866069231651E-5
416.8693834703355         8.590683664419166E-5
421.6965034285823         8.072529584417958E-5
426.57951880159254        7.612550565468722E-5
431.519076827765          7.201426178210902E-5
436.5158322401661         6.831726238133342E-5
441.57044735331255        6.497455013218052E-5
446.683592150963          6.19372093965507E-5
451.8559443749226         5.916493529486992E-5
457.0881896148752         5.662421973630998E-5
462.38102139926036        5.4286977978932214E-5
467.73514128719813        5.212949187963697E-5
473.15125896148027        5.013159436358713E-5
478.6300923226385         4.827602959821518E-5
484.1723675840994         4.654794419158922E-5
489.77881936844614        4.4934484419341026E-5
495.45019080479057        4.342447087912213E-5
501.18723362727246        4.20081342200872E-5
506.99070827470445        4.067689886060472E-5
512.8613839913648         3.942320795591253E-5
518.8000389289609         3.824037452011023E-5
524.8074602497722         3.712246104823802E-5
530.8844442309885         3.6064177122442356E-5
537.0317963702527         3.506079371866301E-5
543.250331492433          3.410807030542437E-5
549.5408738576248         3.320219393026022E-5
555.9042572704037         3.233972618192199E-5
562.341325190349          3.151755879229507E-5
568.8529308438414         3.073287449581685E-5
575.4399373371566         2.998311428727529E-5
582.1032177708715         2.926594823499887E-5
588.843655355589          2.8579250176307136E-5
595.6621435290103         2.792107654461351E-5
602.5595860743581         2.7289646730536538E-5
609.5368972401693         2.668332652023927E-5
616.5950018614822         2.6100613337103495E-5
623.7348354824192         2.5540123433809797E-5
630.957344480193          2.5000580143921693E-5
638.263486190549          2.4480803858910327E-5
645.6542290346556         2.3979703051217014E-5
653.1305526474723         2.3496266049176427E-5
660.6934480075964         2.3029554070282008E-5
668.3439175686149         2.2578694621218817E-5
676.0829753919819         2.2142875990026477E-5
683.9116472814293         2.1721341691260895E-5
691.8309709189363         2.1313386301326828E-5
699.841996002273          2.0918350814177135E-5
707.945784384138          2.0535619194823208E-5
716.143410212902          2.016461481950279E-5
724.4359600749899         1.9804797420813634E-5
732.8245331389045         1.945566024384013E-5
741.3102413009177         1.9116727537718043E-5
749.8942093324558         1.8787552217437428E-5
758.5775750291835         1.8467713668235454E-5
767.3614893618186         1.8156816014667496E-5
776.247116628692          1.7854486127750944E-5
785.2356346100718         1.756037217197107E-5
794.3282347242813         1.7274142056211894E-5
803.5261221856177         1.6995482076346353E-5
812.8305161640995         1.672409566223513E-5
822.2426499470712         1.6459702292252086E-5
831.7637711026708         1.6202036342101195E-5
841.3951416451947         1.595084621487444E-5
851.1380382023768         1.5705893382674682E-5
860.9937521846008         1.5466951526287586E-5
870.9635899560806         1.5233805852281102E-5
881.0488730080147         1.5006252323595842E-5
891.2509381337459         1.478409701840656E-5
901.571137605957          1.4567155532834612E-5
912.0108393559096         1.4355252393864776E-5
922.5714271547629         1.414822056839363E-5
933.2543007969905         1.3945900931744599E-5
944.0608762859235         1.374814182740901E-5
954.992586021436          1.3554798693320871E-5
966.0508789898131         1.336573358304924E-5
977.2372209558112         1.3180814868323658E-5
988.553094656939          1.2999916866499258E-5
1000                      1.2822919526086032E-5
1011.5794542598983        1.2649708096166517E-5
1023.2929922807537        1.2480172918979375E-5
1035.1421666793442        1.2314209126839097E-5
1047.1285480508996        1.215171637224618E-5
1059.2537251772887        1.199259863153847E-5
1071.519305237607         1.1836764001277354E-5
1083.9269140212039        1.16841244597984E-5
1096.4781961431852        1.1534595704419314E-5
1109.174815262401         1.1388096972716076E-5
1122.018454301963         1.124455087221136E-5
1135.0108156723143        1.11038832196317E-5
1148.1536214968828        1.096602290935782E-5
1161.4486138403427        1.083090176101938E-5
1174.8975549395302        1.069845439196883E-5
1188.502227437019         1.056861811552531E-5
1202.2644346174131        1.0441332803183407E-5
1216.1860006463678        1.0316540787423373E-5
1230.268770812381         1.0194186775473215E-5
1244.5146117713844        1.0074217724058768E-5
1258.9254117941675        9.956582786461338E-6
1273.5030810166616        9.841233208593854E-6
1288.249551693135         9.728122256301481E-6
1303.1667784523           9.61720514697414E-6
1318.2567385564075        9.508438981557959E-6
1333.521432163324         9.401782681242336E-6
1348.9628825916532        9.297196923769755E-6
1364.583136588924         9.194644101984902E-6
1380.3842646028852        9.094088266150172E-6
1396.3683610559376        8.995495076487897E-6
1412.5375446227554        8.898831763960064E-6
1428.8939585111036        8.804067091688697E-6
1445.439770745928         8.711171320072314E-6
1462.1771744567184        8.620116182372044E-6
1479.1083881682073        8.530874841142545E-6
1496.235656094433         8.44342188224742E-6
1513.5612484362073        8.35773328080966E-6
1531.0874616820304        8.273786390427864E-6
1548.816618912481         8.191559931376034E-6
1566.75107010815          8.111033975627583E-6
1584.893192461114         8.032189946185825E-6
1603.2453906900419        7.955010609935322E-6
1621.8100973589299        7.879480076875125E-6
1640.5897731995387        7.805583816295337E-6
1659.5869074375596        7.733308653035985E-6
1678.8040181225606        7.66264278834584E-6
1698.2436524617442        7.5935758177809376E-6
1717.9083871575895        7.5260987524114754E-6
1737.8008287493763        7.460204046353369E-6
1757.923613958693         7.395885633338888E-6
1778.2794100389228        7.333138961904257E-6
1798.8709151287874        7.271961046187947E-6
1819.7008586099826        7.212350510002321E-6
1840.7720014689564        7.154307654427546E-6
1862.0871366628676        7.097834520255448E-6
1883.649089489802         7.042934967236614E-6
1905.4607179632483        6.9896147558361E-6
1927.5249131909366        6.937881645831779E-6
1949.8445997580454        6.887745502021393E-6
1972.4227361148535        6.839218416895476E-6
1995.2623149688789        6.792314838650562E-6
2018.3663636815597        6.7470517279523844E-6
2041.7379446695295        6.70344872126378E-6
2065.3801558105292        6.661528312581196E-6
2089.2961308540407        6.621316068695616E-6
2113.489039836648         6.582840854893231E-6
2137.9620895022326        6.5461350988706905E-6
2162.71852372702          6.5112350784484565E-6
2187.761623949552         6.478181245047149E-6
2213.0947096056366        6.447018589995094E-6
2238.72113856834          6.4177970493885E-6
2264.6443075930597        6.390571973848135E-6
2290.867652767775         6.365404636308058E-6
2317.39464996848          6.342362824450834E-6
2344.228815319923         6.321521503138274E-6
2371.373705661655         6.30296355927335E-6
2398.83291901949          6.286780665717104E-6
2426.6100950824143        6.273074251026944E-6
2454.708915685031         6.261956606636064E-6
2483.13310529557          6.253552173621669E-6
2511.886431509582         6.2479989919598725E-6
2540.9727055493063        6.245450404099673E-6
2570.3957827688646        6.246077000991332E-6
2600.159563165272         6.250068887145218E-6
2630.2679918953813        6.257638330276356E-6
2660.7250597988086        6.269022843810696E-6
2691.534803926914         6.284488818964249E-6
2722.701308077913         6.304335801860976E-6
2754.2287033381663        6.32890156677978E-6
2786.121168629772         6.358568159360889E-6
2818.382931264455         6.3937691209023445E-6
2851.0182675039096        6.4349981918374345E-6
2884.031503126606         6.48281985601862E-6
2917.427014001166         6.537882177068205E-6
2951.209226666384         6.600932539527873E-6
2985.3826189179604        6.67283713548395E-6
3019.9517204020162        6.7546051742220006E-6
3054.9211132155156        6.8474193295109675E-6
3090.295432513592         6.952674281366466E-6
3126.0793671239558        7.072026061993515E-6
3162.2776601683795        7.207455828870277E-6
3198.895109691397         7.361353307024177E-6
3235.936569296281         7.536627318657319E-6
3273.406948788383         7.736854316966649E-6
3311.311214825911         7.96648089773598E-6
3349.6543915782795        8.231104987402293E-6
3388.4415613920273        8.537873475734845E-6
3427.6778654645045        8.896056963224064E-6
3467.368504525317         9.317900919163435E-6
3507.5187395256794        9.819921971654353E-6
3548.133892335753         1.042494667515222E-5
3589.2193464500497        1.1165441474650923E-5
3630.780547701014         1.208920018038099E-5
3672.8230049808462        1.3269597267246306E-5
3715.3522909717276        1.4825342870194912E-5
3758.374042884443         1.6961889397467142E-5
3801.8939632056126        2.0068362690303112E-5
3845.9178204535356        2.4981884153979973E-5
3890.4514499428046        3.389282180565786E-5
3935.5007545577723        5.4933853740875925E-5
3981.0717055349733        1.6480635575247883E-4
4027.170343254591         1.4354094506693825E-4
4073.8027780411303        4.768964656251026E-5
4120.975190973304         2.776601355785155E-5
4168.693834703355         1.9160970466263563E-5
4216.965034285822         1.4371190666458779E-5
4265.795188015925         1.1325058861307071E-5
4315.19076827765          9.220806756491137E-6
4365.158322401661         7.68282509641052E-6
4415.704473533126         6.511733991778729E-6
4466.835921509635         5.591879480703089E-6
4518.559443749226         4.851560997270497E-6
4570.881896148751         4.243963494216436E-6
4623.810213992603         3.737223595149723E-6
4677.351412871981         3.3089023925358318E-6
4731.512589614803         2.94274131471445E-6
4786.30092322638          2.62667177769609E-6
4841.7236758409945        2.351547414779253E-6
4897.7881936844615        2.110310392684741E-6
4954.501908047905         1.8974277088273119E-6
5014.4118872549225        1.7006798808267276E-6
5028.865315008695         1.6569794871609075E-6
5043.360402996709         1.614495314665804E-6
5057.8972712994955        1.5731818696026036E-6
5072.476040343681         1.5329958646499532E-6
5087.096830903027         1.4938961014537485E-6
5101.759764099392         1.4558433341424366E-6
5116.464961403773         1.4188001652537886E-6
5131.21254463727          1.38273093295575E-6
5146.002635972142         1.347601613001883E-6
5160.835357932776         1.3133797256317587E-6
5175.71083339672          1.28003424849426E-6
5190.62918559572          1.2475355396972807E-6
5205.590538116698         1.2158552543684697E-6
5220.595014902824         1.1849662840543687E-6
5235.642740254497         1.1548426828115067E-6
5250.733838830418         1.1254596109394293E-6
5265.868435648585         1.0967932703623482E-6
5281.046656087345         1.0688208600944786E-6
5296.268625886448         1.0415205132573696E-6
5311.534471148055         1.0148712621255002E-6
5326.8443183378195        9.888529819131612E-7
5342.198294285897         9.63446355304276E-7
5357.596526188035         9.386328307236899E-7
5373.039141606587         9.143945848317715E-7
5388.526268471611         8.907144858379253E-7
5404.058035081892         8.675760655734981E-7
5419.634570106019         8.449634803652661E-7
5435.256002583469         8.22861486888848E-7
5450.922461925638         8.012554147712512E-7
5466.634077916959         7.801311353522008E-7
5482.390980715924         7.594750413460421E-7
5498.193300856222         7.392740223168417E-7
5514.041169247758         7.195154404573563E-7
5529.934717177799         7.001871125045287E-7
5545.8740763120095        6.812772864572887E-7
5561.859378695565         6.627746256100983E-7
5577.890756754265         6.44668187956452E-7
5593.968343295583         6.269474123573501E-7
5610.0922715098195        6.09602099395279E-7
5626.262674971157         5.926223982289609E-7
5642.47968763881          5.759987907479425E-7
5658.7434438580985        5.597220761640759E-7
5675.054078361577         5.437833637462152E-7
5691.411726270164         5.281740539462154E-7
5707.816523094229         5.128858281418513E-7
5724.268604734753         4.97910640955551E-7
5740.768107484414         4.832407043134775E-7
5757.315168028758         4.688684810830703E-7
5773.909923447291         4.547866735573693E-7
5790.552511214651         4.4098821396069207E-7
5807.243069201718         4.274662564006192E-7
5823.981735676766         4.1421416872192886E-7
5840.768649306627         4.012255223852266E-7
5857.6039491578           3.884940872535444E-7
5874.487774697651         3.760138238890898E-7
5891.420265795518         3.6377887301684297E-7
5908.4015627239205        3.5178355518742216E-7
5925.431806159672         3.400223587317191E-7
5942.5111371850935        3.284899352980724E-7
5959.639697289141         3.1718109569524786E-7
5976.817628368593         3.0609080281994474E-7
5994.045072729251         2.9521416555835054E-7
6011.322173087065         2.8454643573207986E-7
6028.649072569375         2.740830008554855E-7
6046.025914716041         2.638193818343805E-7
6063.452843480688         2.537512259127761E-7
6080.930003231845         2.4387430485156285E-7
6098.45753875417          2.341845090932011E-7
6116.035595249662         2.2467784466867892E-7
6133.664318338822         2.1535042846998438E-7
6151.343854061911         2.061984857755856E-7
6169.074348880105         1.9721834598031707E-7
6186.855949676765         1.884064395430372E-7
6204.688803758597         1.7975929474207016E-7
6222.573058856928         1.7127353440828855E-7
6240.508863128881         1.629458732884572E-7
6258.496365158627         1.5477311494056256E-7
6276.5357139586295        1.4675214931443777E-7
6294.6270589708365        1.3887995006976715E-7
6312.770550067971         1.3115357163389547E-7
6330.966337554721         1.2357014701329682E-7
6349.214572169031         1.1612688614131559E-7
6367.515405083313         1.0882107274990068E-7
6385.8689879057165        1.0165006310994819E-7
6404.275472681398         9.461128242965822E-8
6422.735011893742         8.770222566941845E-8
6441.2477584656735        8.092045251162104E-8
6459.813865760873         7.426358797302046E-8
6478.433487585101         6.77293191019536E-8
6497.106778187413         6.131539422471137E-8
6515.833892261499         5.5019622154535316E-8
6534.614984946915         4.8839867995542016E-8
6553.450211830385         4.2774054342512536E-8
6572.339728947116         3.68201587306912E-8
6591.283692782036         3.0976212408926596E-8
6610.282260271154         2.5240299699438044E-8
6629.335588802796         1.9610555627650252E-8
6648.443836218971         1.4085165939737924E-8
6667.607160816619         8.662365228504345E-9
6686.825721348981         3.34043633828452E-9
6706.09967702686          1.8822905652696704E-9
6725.4291875199715        7.007439714713519E-9
6744.814412958272         1.2036588751207718E-8
6764.255513933253         1.6971272427174658E-8
6783.7526514993115        2.181298065563142E-8
6803.305987175044         2.656316036960163E-8
6822.915682944626         3.122321610574892E-8
6842.581901259114         3.5794510877797614E-8
6862.304805037812         4.0278366139441835E-8
6882.084557669636         4.46760631046242E-8
6901.921323014425         4.89888417474418E-8
6921.8152654043515        5.321790339410901E-8
6941.766549645227         5.7364409125610524E-8
6961.775341017924         6.142948041150791E-8
6981.841805279687         6.541420022986451E-8
7001.966108665567         6.931961260327572E-8
7022.148417889736         7.314672268146846E-8
7042.388900146929         7.689649710718358E-8
7062.687723113776         8.056986338834348E-8
7083.045054950218         8.416771061416876E-8
7103.461064300915         8.769088854734338E-8
7123.935920296595         9.114020822984556E-8
7144.469792555517         9.451644061187382E-8
7165.062851184813         9.782031676281538E-8
7185.7152667819555        1.0105252812514252E-7
7206.4272104361235        1.0421372431049001E-7
7227.198853729639         1.0730451324112602E-7
7248.030368739411         1.1032546094077737E-7
7268.9219280383095        1.1327709009818116E-7
7289.873704696654         1.1615987823710988E-7
7310.88587228359          1.1897425817298615E-7
7331.958604868582         1.2172061557167568E-7
7353.092077022809         1.2439928785722586E-7
7374.286463820625         1.2701056268761849E-7
7395.541940841043         1.2955467573958524E-7
7416.858684169126         1.3203180962197846E-7
7438.236870397514         1.3444209029505357E-7
7459.676676627822         1.367855857010354E-7
7481.178280472171         1.390623033111201E-7
7502.741860054592         1.4127218538157662E-7
7524.367594012571         1.4341510797033975E-7
7546.055661498464         1.45490875378007E-7
7567.806242181043         1.4749921784224587E-7
7589.619516246926         1.4943978476674953E-7
7611.4956644021           1.5131214233919128E-7
7633.43486787344          1.5311576691916032E-7
7655.437308410151         1.5485003839057154E-7
7677.503168285339         1.5651423489302196E-7
7699.6326302974585        1.5810752425957544E-7
7721.825877771894         1.5962895681397318E-7
7744.083094562413         1.610774558333567E-7
7766.404465052722         1.6245180701736274E-7
7788.790174158016         1.6375064870838992E-7
7811.240407326452         1.6497245761049817E-7
7833.7553505407495        1.6611553599493192E-7
7856.33519031967          1.6717799597575554E-7
7878.980113719625         1.681577412543877E-7
7901.690308336166         1.69052449046653E-7
7924.4659623055695        1.698595457954536E-7
7947.307264306414         1.7057618458905714E-7
7970.214403561089         1.711992150067808E-7
7993.187569837426         1.7172515291148163E-7
8016.2269534502075        1.7215014311858573E-7
8039.332745262807         1.724699196221201E-7
8062.505136688707         1.7267975628367713E-7
8085.744319693146         1.727744161423708E-7
8109.050486794648         1.7274808726315792E-7
8132.423831066681         1.7259431350828506E-7
8155.864546139197         1.723059111073656E-7
8179.372826200265         1.7187487432156406E-7
8202.948865997701         1.7129226553166075E-7
8226.592860840625         1.7054808455562213E-7
8250.305006601142         1.6963111799333327E-7
8274.085499715906         1.6852876078400326E-7
8297.934537187806         1.6722680480901122E-7
8321.852316587543         1.657091876887461E-7
8345.83903605529          1.6395769276382587E-7
8369.894894302362         1.6195158863508337E-7
8394.020090612803         1.5966719284711114E-7
8418.214824845096         1.5707734146719237E-7
8442.479297433765         1.5415074164016855E-7
8466.813709391094         1.5085116915986528E-7
8491.218262308728         1.4713647602650812E-7
8515.693158359387         1.4295734471539498E-7
8540.238600298546         1.382557152340282E-7
8564.854791466067         1.3296277741786055E-7
8589.541935787945         1.2699638479476956E-7
8614.30023777794          1.202576826433283E-7
8639.129902539322         1.1262665710949202E-7
8664.031135766518         1.0395618229948916E-7
8689.00414374688          9.406393660726683E-8
8714.04913336232          8.272124312399805E-8
8739.166312091094         6.963737550974964E-8
8764.35588800947          5.443702316653377E-8
8789.618069793463         3.662716775918119E-8
8814.953066720604         1.5547065378861053E-8
8840.361088671598         9.709635827206618E-9
8865.842346132145         4.042063428546064E-8
8891.397050194613         7.844675969180685E-8
8917.025412559844         1.266073691104626E-7
8942.727645538864         1.8938858461715856E-7
8968.503962054652         2.7438842563854983E-7
8994.354575643945         3.9558086764195163E-7
9020.279700458932         5.817790276755138E-7
9046.279551269108         9.034507777295498E-7
9072.354343462981         1.590595222452364E-6
9098.50429304992          4.072871343511052E-6
9124.729616661894         1.4751158776064719E-5
9151.030531555283         3.0462607438063224E-6
9177.407255612708         1.8253838231022146E-6
9203.86000734478          1.3604273238145211E-6
9230.38900589197          1.115664864616062E-6
9256.994471026359         9.648595623172891E-7
9283.676623153535         8.627851602147699E-7
9310.435683314336         7.892262338434019E-7
9337.271873186764         7.337890265863906E-7
9364.18541508774          6.905827309668981E-7
9391.176531975028         6.560193067743265E-7
9418.24544744901          6.277884876314218E-7
9445.392385754565         6.043355229815671E-7
9472.617571782965         5.845757108162641E-7
9499.921231073664         5.67729276604326E-7
9527.30358981624          5.532212824774796E-7
9554.7648748522           5.406185371432186E-7
9582.305313676936         5.295884687787501E-7
9609.925134441528         5.198715329384328E-7
9637.624565954682         5.112622279309701E-7
9665.403837684646         5.035957394993641E-7
9693.263179761037         4.967383596677025E-7
9721.20282297684          4.905804925832999E-7
9749.222998790226         4.850314641310301E-7
9777.32393932656          4.800156191455569E-7
9805.505877380247         4.754693450769371E-7
9833.769046416694         4.713387768544996E-7
9862.113680574275         4.6757800828289866E-7
9890.5400146662           4.6414768197758644E-7
9919.048284182534         4.610138703603806E-7
9947.63872529208          4.5814717730129585E-7
9976.311574844403         4.555220140005919E-7
