% Model:              M -220721 - Diapharagm.mph
% Version:            COMSOL 6.0.0.405
% Date:               Jul 28 2022, 22:01
% Dimension:          1
% Nodes:              580
% Expressions:        1
% Description:        Point graph
% freq (Hz)               FEM-2DX
100                       8.575943125165584E-6
101.15794542598982        8.59396889057295E-6
102.32929922807536        8.612493246887827E-6
103.5142166679344         8.63153184044655E-6
104.71285480508996        8.651101372997503E-6
105.92537251772886        8.671218882303948E-6
107.1519305237606         8.69190205572818E-6
108.39269140212039        8.713169487757773E-6
109.64781961431851        8.735040314330448E-6
110.9174815262401         8.757534637357277E-6
112.2018454301963         8.78067319281336E-6
113.50108156723155        8.804477699665761E-6
114.81536214968828        8.828970746924596E-6
116.14486138403426        8.854175822923182E-6
117.48975549395291        8.880117528659127E-6
118.85022274370189        8.906821363310263E-6
120.22644346174131        8.934314072861766E-6
121.6186000646368         8.962623532144037E-6
123.02687708123811        8.991778738005306E-6
124.45146117713857        9.021810208203666E-6
125.89254117941675        9.052749732448976E-6
127.35030810166616        9.084630403107235E-6
128.82495516931337        9.11748709823299E-6
130.31667784523           9.151356181722416E-6
131.82567385564073        9.18627576176279E-6
133.3521432163324         9.222285819953064E-6
134.89628825916532        9.259428222310471E-6
136.4583136588924         9.297746925450915E-6
138.03842646028852        9.337288039988663E-6
139.63683610559377        9.378100080462635E-6
141.2537544622754         9.420233829452958E-6
142.8893958511102         9.463742903463565E-6
144.5439770745928         9.508683696910058E-6
146.21771744567184        9.555115442375446E-6
147.91083881682073        9.603100732813773E-6
149.6235656094433         9.652705472844296E-6
151.35612484362088        9.703999210238817E-6
153.10874616820303        9.757055366488075E-6
154.88166189124811        9.811951637410058E-6
156.67510701081486        9.8687701062019E-6
158.48931924611142        9.927597448833145E-6
160.32453906900417        9.988525947276052E-6
162.18100973589299        1.0051653074250936E-5
164.05897731995387        1.01170822678669E-5
165.95869074375614        1.0184923719956615E-5
167.88040181225605        1.0255294037286072E-5
169.82436524617444        1.032831776880345E-5
171.79083871575875        1.0404127373753693E-5
173.78008287493762        1.0482863979930068E-5
175.7923613958693         1.056467846243269E-5
177.82794100389228        1.06497317836423E-5
179.88709151287873        1.0738196346884897E-5
181.97008586099827        1.0830256574651761E-5
184.07720014689562        1.0926110338638818E-5
186.20871366628674        1.1025970016588776E-5
188.36490894898           1.1130063885840486E-5
190.54607179632484        1.1238637669646187E-5
192.75249131909365        1.1351956279411116E-5
194.98445997580455        1.147030552227343E-5
197.24227361148533        1.1593994611812699E-5
199.52623149688787        1.172335805992664E-5
201.83663636815618        1.1858758910247717E-5
204.17379446695296        1.2000591286583334E-5
206.53801558105292        1.2149284228182897E-5
208.92961308540387        1.2305305517589944E-5
211.34890398366477        1.2469165988326842E-5
213.79620895022325        1.2641424921689628E-5
216.271852372702          1.2822695548653364E-5
218.77616239495518        1.3013652161064198E-5
221.30947096056389        1.3215037549328174E-5
223.872113856834          1.3427672008597026E-5
226.46443075930597        1.365246389918875E-5
229.08676527677724        1.389042150377948E-5
231.73946499684797        1.41426676045237E-5
234.42288153199226        1.4410455743408399E-5
237.13737056616552        1.469519006835125E-5
239.88329190194898        1.499844885635804E-5
242.66100950824142        1.532201203059817E-5
245.4708915685031         1.5667894098808284E-5
248.31331052955704        1.6038385720115327E-5
251.18864315095797        1.6436100510337053E-5
254.09727055493065        1.6864035733529992E-5
257.03957827688646        1.732564483752617E-5
260.0159563165272         1.7824927037174047E-5
263.02679918953817        1.836654098268107E-5
266.0725059798809         1.8955945595837645E-5
269.1534803926917         1.9599579766744185E-5
272.27013080779125        2.0305092315891462E-5
275.4228703338166         2.1081641406632942E-5
278.61211686297696        2.1940284368032024E-5
281.8382931264455         2.2894498773667433E-5
285.10182675039096        2.396088282185823E-5
288.40315031266056        2.5160110746410506E-5
291.7427014001166         2.6518272910197905E-5
295.1209226666387         2.8068765032667576E-5
298.538261891796          2.9855044929335014E-5
301.9951720402016         3.193472848391673E-5
305.49211132155125        3.438586367224865E-5
309.0295432513592         3.731687431373022E-5
312.6079367123956         4.0882926173120936E-5
316.22776601683796        4.531416121293234E-5
319.88951096913974        5.0967204206859405E-5
323.5936569296281         5.8425893859796534E-5
327.3406948788383         6.87165284272421E-5
331.1311214825911         8.382495325176537E-5
334.9654391578276         1.0816015058230537E-4
338.84415613920277        1.5387230188471364E-4
342.76778654645045        2.711350019362504E-4
346.73685045253166        0.001231578883696232
350.75187395256796        4.691897447938633E-4
354.8133892335753         1.9442897418287165E-4
358.92193464500536        1.2157414078606363E-4
363.0780547701014         8.787751869829624E-5
367.2823004980846         6.84600082580331E-5
371.53522909717276        5.583494309615919E-5
375.8374042884443         4.697080388882832E-5
380.1893963205613         4.040642925182558E-5
384.5917820453535         3.5350780079795226E-5
389.04514499428046        3.1338284430830075E-5
393.55007545577723        2.807706164114801E-5
398.1071705534973         2.537483402039911E-5
402.71703432545905        2.3099778577723763E-5
407.3802778041126         2.1158500250465184E-5
412.0975190973304         1.9482979264619783E-5
416.8693834703355         1.802250145887632E-5
421.6965034285823         1.6738484182590568E-5
426.57951880159254        1.5601052463976718E-5
431.519076827765          1.4586714651771653E-5
436.5158322401661         1.3676743133311258E-5
441.57044735331255        1.2856025464130725E-5
446.683592150963          1.2112231993825523E-5
451.8559443749226         1.1435203291931266E-5
457.0881896148752         1.0816492903721207E-5
462.38102139926036        1.024902114278248E-5
467.73514128719813        9.72680891822478E-6
473.15125896148027        9.244772092015419E-6
478.6300923226385         8.798560194248744E-6
484.1723675840994         8.384428314518574E-6
489.77881936844614        7.99913550664654E-6
495.45019080479057        7.639862776419036E-6
501.18723362727246        7.304146512546064E-6
506.99070827470445        6.989824034051386E-6
512.8613839913648         6.694989326932183E-6
518.8000389289609         6.41795569843087E-6
524.8074602497722         6.157225319373202E-6
530.8844442309885         5.911463457066167E-6
537.0317963702527         5.679476859228277E-6
543.250331492433          5.4601954277310355E-6
549.5408738576248         5.2526568114398725E-6
555.9042572704037         5.0559930846172374E-6
562.341325190349          4.869419518844967E-6
568.8529308438414         4.69222476003183E-6
575.4399373371566         4.523762526179268E-6
582.1032177708715         4.363444285102269E-6
588.843655355589          4.210732900575403E-6
595.6621435290103         4.065137228613824E-6
602.5595860743581         3.926207226819493E-6
609.5368972401693         3.7935297554605795E-6
616.5950018614822         3.666724869304044E-6
623.7348354824192         3.5454425667581716E-6
630.957344480193          3.429359858425221E-6
638.263486190549          3.3181782266292183E-6
645.6542290346556         3.21162135684382E-6
653.1305526474723         3.1094330844856425E-6
660.6934480075964         3.011375616026982E-6
668.3439175686149         2.9172278848692796E-6
676.0829753919819         2.8267841373567175E-6
683.9116472814293         2.739852577001076E-6
691.8309709189363         2.6562542595732737E-6
699.841996002273          2.5758219752651444E-6
707.945784384138          2.4983993433233797E-6
716.143410212902          2.4238399282044496E-6
724.4359600749899         2.3520064680917217E-6
732.8245331389045         2.282770160793707E-6
741.3102413009177         2.216010026586294E-6
749.8942093324558         2.1516123193643955E-6
758.5775750291835         2.0894699874633195E-6
767.3614893618186         2.0294822049944485E-6
776.247116628692          1.9715539054099024E-6
785.2356346100718         1.9155953903472483E-6
794.3282347242813         1.8615219476526535E-6
803.5261221856177         1.8092535116252738E-6
812.8305161640995         1.758714345975844E-6
822.2426499470712         1.7098327617789718E-6
831.7637711026708         1.662540840310778E-6
841.3951416451947         1.6167742001132404E-6
851.1380382023768         1.5724717618404635E-6
860.9937521846008         1.5295755372771933E-6
870.9635899560806         1.4880304435127522E-6
881.0488730080147         1.4477841177333277E-6
891.2509381337459         1.4087867534287787E-6
901.571137605957          1.3709909471229637E-6
912.0108393559096         1.3343515531066082E-6
922.5714271547629         1.298825554120718E-6
933.2543007969905         1.2643719335758681E-6
944.0608762859235         1.2309515618748964E-6
954.992586021436          1.1985270943371122E-6
966.0508789898131         1.1670628622723897E-6
977.2372209558112         1.136524786880007E-6
988.553094656939          1.1068802896078407E-6
1000                      1.0780982110628434E-6
1011.5794542598983        1.050148731698459E-6
1023.2929922807537        1.023003307844211E-6
1035.1421666793442        9.966346003160372E-7
1047.1285480508996        9.710164101821173E-7
1059.2537251772887        9.461236227715111E-7
1071.519305237607         9.21932153275179E-7
1083.9269140212039        8.984188923671089E-7
1096.4781961431852        8.755616592788976E-7
1109.174815262401         8.53339155950903E-7
1122.018454301963         8.317309237771714E-7
1135.0108156723143        8.107173024227607E-7
1148.1536214968828        7.902793929662235E-7
1161.4486138403427        7.703990204500949E-7
1174.8975549395302        7.510587002014719E-7
1188.502227437019         7.32241607099266E-7
1202.2644346174131        7.139315433580955E-7
1216.1860006463678        6.961129110060908E-7
1230.268770812381         6.78770684917499E-7
1244.5146117713844        6.618903857555623E-7
1258.9254117941675        6.454580580862861E-7
1273.5030810166616        6.294602453983153E-7
1288.249551693135         6.138839687368338E-7
1303.1667784523           5.987167071979544E-7
1318.2567385564075        5.839463767614215E-7
1333.521432163324         5.695613131183323E-7
1348.9628825916532        5.55550252339989E-7
1364.583136588924         5.419023166113761E-7
1380.3842646028852        5.286069960499563E-7
1396.3683610559376        5.156541344617809E-7
1412.5375446227554        5.030339149821739E-7
1428.8939585111036        4.90736846117109E-7
1445.439770745928         4.787537488772082E-7
1462.1771744567184        4.670757448644623E-7
1479.1083881682073        4.5569424311091914E-7
1496.235656094433         4.446009300007535E-7
1513.5612484362073        4.337877578208184E-7
1531.0874616820304        4.232469349987848E-7
1548.816618912481         4.129709156977044E-7
1566.75107010815          4.029523909966933E-7
1584.893192461114         3.9318427970691966E-7
1603.2453906900419        3.8365971964375634E-7
1621.8100973589299        3.743720596916984E-7
1640.5897731995387        3.6531485164940317E-7
1659.5869074375596        3.5648184331011876E-7
1678.8040181225606        3.478669704328243E-7
1698.2436524617442        3.394643507360011E-7
1717.9083871575895        3.3126827669878367E-7
1737.8008287493763        3.2327320933978123E-7
1757.923613958693         3.154737722149687E-7
1778.2794100389228        3.0786474564109326E-7
1798.8709151287874        3.004410608850576E-7
1819.7008586099826        2.9319779481249623E-7
1840.7720014689564        2.861301648311328E-7
1862.0871366628676        2.792335238143424E-7
1883.649089489802         2.725033549427173E-7
1905.4607179632483        2.6593526761893406E-7
1927.5249131909366        2.595249925635753E-7
1949.8445997580454        2.53268377411963E-7
1972.4227361148535        2.471613827987613E-7
1995.2623149688789        2.412000780890809E-7
2018.3663636815597        2.3538063723412516E-7
2041.7379446695295        2.296993351033419E-7
2065.3801558105292        2.2415254387433056E-7
2089.2961308540407        2.1873672885531738E-7
2113.489039836648         2.1344844528736937E-7
2137.9620895022326        2.0828433465520633E-7
2162.71852372702          2.0324112102781198E-7
2187.761623949552         1.9831560793869403E-7
2213.0947096056366        1.9350467456202036E-7
2238.72113856834          1.888052726726015E-7
2264.6443075930597        1.842144227966029E-7
2290.867652767775         1.797292111224546E-7
2317.39464996848          1.7534678569992027E-7
2344.228815319923         1.7106435305786824E-7
2371.373705661655         1.6687917445368193E-7
2398.83291901949          1.627885620583911E-7
2426.6100950824143        1.5878987499773049E-7
2454.708915685031         1.5488051521073178E-7
2483.13310529557          1.5105792293393893E-7
2511.886431509582         1.4731957213758386E-7
2540.9727055493063        1.436629651715644E-7
2570.3957827688646        1.4008562732952107E-7
2600.159563165272         1.3658510071409207E-7
2630.2679918953813        1.3315893726872665E-7
2660.7250597988086        1.2980469121624572E-7
2691.534803926914         1.2651991030784636E-7
2722.701308077913         1.23302125890867E-7
2754.2287033381663        1.201488414724591E-7
2786.121168629772         1.1705751929806302E-7
2818.382931264455         1.1402556483980545E-7
2851.0182675039096        1.1105030811850439E-7
2884.031503126606         1.0812898162275564E-7
2917.427014001166         1.0525869362900624E-7
2951.209226666384         1.0243639586986419E-7
2985.3826189179604        9.965884364780998E-8
3019.9517204020162        9.692254682570105E-8
3054.9211132155156        9.422370828186494E-8
3090.295432513592         9.155814649977026E-8
3126.0793671239558        8.892119660858342E-8
3162.2776601683795        8.630758292614294E-8
3198.895109691397         8.371125249689511E-8
3235.936569296281         8.112515486777333E-8
3273.406948788383         7.854094649645799E-8
3311.311214825911         7.594858817630945E-8
3349.6543915782795        7.333578627025299E-8
3388.4415613920273        7.068720300581743E-8
3427.6778654645045        6.798331535038193E-8
3467.368504525317         6.519872559283252E-8
3507.5187395256794        6.229958865207922E-8
3548.133892335753         5.9239566388186717E-8
3589.2193464500497        5.595322010976369E-8
3630.780547701014         5.23447257897148E-8
3672.8230049808462        4.826753034192578E-8
3715.3522909717276        4.348515632599524E-8
3758.374042884443         3.758904896611715E-8
3801.8939632056126        2.98062601523765E-8
3845.9178204535356        1.8475022000742284E-8
3890.4514499428046        7.513083890444564E-10
3935.5007545577723        4.400913730023741E-8
3981.0717055349733        2.634779252162584E-7
4027.170343254591         3.4685178999791936E-7
4073.8027780411303        1.5526779676919426E-7
4120.975190973304         1.1435928761643243E-7
4168.693834703355         9.59384902280323E-8
4216.965034285822         8.51177690167152E-8
4265.795188015925         7.778624062243809E-8
4315.19076827765          7.23524660474951E-8
4365.158322401661         6.807053912797723E-8
4415.704473533126         6.454421544307021E-8
4466.835921509635         6.154338134024598E-8
4518.559443749226         5.8925143179541923E-8
4570.881896148751         5.659599547461003E-8
4623.810213992603         5.449211130982669E-8
4677.351412871981         5.256837572410851E-8
4731.512589614803         5.079194882018134E-8
4786.30092322638          4.913831640944339E-8
4841.7236758409945        4.758877431512773E-8
4897.7881936844615        4.612877388050592E-8
4954.501908047905         4.474680316455548E-8
5014.4118872549225        4.3377286643450276E-8
5028.865315008695         4.3059482488239416E-8
5043.360402996709         4.274537811778811E-8
5057.8972712994955        4.2434875401123416E-8
5072.476040343681         4.2127880630799696E-8
5087.096830903027         4.1824304278777444E-8
5101.759764099392         4.152406072998617E-8
5116.464961403773         4.122706807653924E-8
5131.21254463727          4.093324788311544E-8
5146.002635972142         4.064252500895919E-8
5160.835357932776         4.035482740689987E-8
5175.71083339672          4.007008596270409E-8
5190.62918559572          3.9788234330915715E-8
5205.590538116698         3.950920877870876E-8
5220.595014902824         3.923294805749997E-8
5235.642740254497         3.895939326031799E-8
5250.733838830418         3.868848770649732E-8
5265.868435648585         3.842017681890693E-8
5281.046656087345         3.815440802688729E-8
5296.268625886448         3.789113064828508E-8
5311.534471148055         3.7630295813127315E-8
5326.8443183378195        3.7371856357130345E-8
5342.198294285897         3.711576674917668E-8
5357.596526188035         3.6861983005075766E-8
5373.039141606587         3.66104626155101E-8
5388.526268471611         3.636116447496107E-8
5404.058035081892         3.6114048817151084E-8
5419.634570106019         3.5869077147965376E-8
5435.256002583469         3.5626212191567075E-8
5450.922461925638         3.5385417830449014E-8
5466.634077916959         3.514665905480161E-8
5482.390980715924         3.490990191030363E-8
5498.193300856222         3.4675113455333755E-8
5514.041169247758         3.4442261710487344E-8
5529.934717177799         3.421131562001938E-8
5545.8740763120095        3.398224500986243E-8
5561.859378695565         3.375502055229185E-8
5577.890756754265         3.352961372353715E-8
5593.968343295583         3.3305996775121715E-8
5610.0922715098195        3.308414270196898E-8
5626.262674971157         3.2864025204757245E-8
5642.47968763881          3.2645618667697633E-8
5658.7434438580985        3.2428898122155623E-8
5675.054078361577         3.221383923190735E-8
5691.411726270164         3.2000418255425945E-8
5707.816523094229         3.178861202716133E-8
5724.268604734753         3.1578397935701214E-8
5740.768107484414         3.1369753898109636E-8
5757.315168028758         3.116265834220294E-8
5773.909923447291         3.095709018234647E-8
5790.552511214651         3.0753028803923695E-8
5807.243069201718         3.055045404225367E-8
5823.981735676766         3.0349346168110636E-8
5840.768649306627         3.0149685864937626E-8
5857.6039491578           2.995145421947315E-8
5874.487774697651         2.9754632702303276E-8
5891.420265795518         2.9559203151615432E-8
5908.4015627239205        2.9365147762961737E-8
5925.431806159672         2.9172449072333354E-8
5942.5111371850935        2.8981089943807992E-8
5959.639697289141         2.879105355662269E-8
5976.817628368593         2.8602323393365738E-8
5994.045072729251         2.841488322798951E-8
6011.322173087065         2.8228717113034565E-8
6028.649072569375         2.8043809370402473E-8
6046.025914716041         2.7860144578568047E-8
6063.452843480688         2.767770756587875E-8
6080.930003231845         2.7496483395948743E-8
6098.45753875417          2.731645736055508E-8
6116.035595249662         2.7137614970747814E-8
6133.664318338822         2.6959941945339216E-8
6151.343854061911         2.678342420364427E-8
6169.074348880105         2.6608047857276108E-8
6186.855949676765         2.643379919933973E-8
6204.688803758597         2.626066469946451E-8
6222.573058856928         2.6088630991860974E-8
6240.508863128881         2.591768486974266E-8
6258.496365158627         2.5747813278342143E-8
6276.5357139586295        2.557900330522719E-8
6294.6270589708365        2.5411242173322482E-8
6312.770550067971         2.5244517233909644E-8
6330.966337554721         2.507881595925136E-8
6349.214572169031         2.4914125934465737E-8
6367.515405083313         2.475043485198066E-8
6385.8689879057165        2.458773050417248E-8
6404.275472681398         2.4426000772657846E-8
6422.735011893742         2.4265233627091086E-8
6441.2477584656735        2.4105417113980728E-8
6459.813865760873         2.3946539349894016E-8
6478.433487585101         2.3788588516356856E-8
6497.106778187413         2.3631552851758672E-8
6515.833892261499         2.3475420642658116E-8
6534.614984946915         2.332018021796272E-8
6553.450211830385         2.316581994244397E-8
6572.339728947116         2.3012328208497835E-8
6591.283692782036         2.285969342683245E-8
6610.282260271154         2.270790402131743E-8
6629.335588802796         2.2556948420206317E-8
6648.443836218971         2.240681504737081E-8
6667.607160816619         2.2257492316325943E-8
6686.825721348981         2.2108968618230074E-8
6706.09967702686          2.1961232316575303E-8
6725.4291875199715        2.1814271735675752E-8
6744.814412958272         2.1668075154250305E-8
6764.255513933253         2.152263079270221E-8
6783.7526514993115        2.137792680551119E-8
6803.305987175044         2.1233951269544768E-8
6822.915682944626         2.1090692175161362E-8
6842.581901259114         2.0948137412021645E-8
6862.304805037812         2.0806274760462682E-8
6882.084557669636         2.066509187794396E-8
6901.921323014425         2.052457628625125E-8
6921.8152654043515        2.0384715357238768E-8
6941.766549645227         2.0245496301728928E-8
6961.775341017924         2.0106906150802195E-8
6981.841805279687         1.996893174294354E-8
7001.966108665567         1.9831559707042724E-8
7022.148417889736         1.9694776443442054E-8
7042.388900146929         1.955856810735359E-8
7062.687723113776         1.942292058872341E-8
7083.045054950218         1.9287819490797623E-8
7103.461064300915         1.915325010957093E-8
7123.935920296595         1.9019197408457862E-8
7144.469792555517         1.888564599471288E-8
7165.062851184813         1.8752580092879973E-8
7185.7152667819555        1.8619983514948077E-8
7206.4272104361235        1.8487839631677605E-8
7227.198853729639         1.8356131339096135E-8
7248.030368739411         1.8224841023209853E-8
7268.9219280383095        1.8093950525106317E-8
7289.873704696654         1.796344109728845E-8
7310.88587228359          1.7833293362136783E-8
7331.958604868582         1.7703487267288727E-8
7353.092077022809         1.7574002031877896E-8
7374.286463820625         1.7444816095239815E-8
7395.541940841043         1.7315907057315776E-8
7416.858684169126         1.7187251616413422E-8
7438.236870397514         1.7058825497952612E-8
7459.676676627822         1.6930603386415422E-8
7481.178280472171         1.6802558835759924E-8
7502.741860054592         1.6674664190796515E-8
7524.367594012571         1.654689048452765E-8
7546.055661498464         1.641920733922973E-8
7567.806242181043         1.6291582850521734E-8
7589.619516246926         1.616398346230504E-8
7611.4956644021           1.6036373833174196E-8
7633.43486787344          1.590871668537983E-8
7655.437308410151         1.5780972642327317E-8
7677.503168285339         1.5653100047733592E-8
7699.6326302974585        1.552505476769869E-8
7721.825877771894         1.5396789971004105E-8
7744.083094562413         1.5268255888566794E-8
7766.404465052722         1.5139399545409602E-8
7788.790174158016         1.5010164461221827E-8
7811.240407326452         1.4880490323197396E-8
7833.7553505407495        1.475031261594699E-8
7856.33519031967          1.4619562214186105E-8
7878.980113719625         1.4488164919800937E-8
7901.690308336166         1.4356040952440972E-8
7924.4659623055695        1.4223104369919539E-8
7947.307264306414         1.4089262418843607E-8
7970.214403561089         1.395441480471488E-8
7993.187569837426         1.3818452857915407E-8
8016.2269534502075        1.368125860211353E-8
8039.332745262807         1.3542703677913033E-8
8062.505136688707         1.3402648129391146E-8
8085.744319693146         1.3260939011779377E-8
8109.050486794648         1.3117408790820048E-8
8132.423831066681         1.297187350394324E-8
8155.864546139197         1.2824130640499932E-8
8179.372826200265         1.2673956677667036E-8
8202.948865997701         1.2521104218702422E-8
8226.592860840625         1.2365298652481549E-8
8250.305006601142         1.2206234231936511E-8
8274.085499715906         1.2043569463412137E-8
8297.934537187806         1.1876921641230789E-8
8321.852316587543         1.170586036060772E-8
8345.83903605529          1.1529899755034577E-8
8369.894894302362         1.1348489184781072E-8
8394.020090612803         1.1161001961939458E-8
8418.214824845096         1.096672166079084E-8
8442.479297433765         1.076482533955833E-8
8466.813709391094         1.055436287512992E-8
8491.218262308728         1.033423127536986E-8
8515.693158359387         1.010314251823329E-8
8540.238600298546         9.859582896252721E-9
8564.854791466067         9.601761193013655E-9
8589.541935787945         9.327541837183531E-9
8614.30023777794          9.034357805704178E-9
8639.129902539322         8.719095662048835E-9
8664.031135766518         8.377941773358283E-9
8689.00414374688          8.006173506662615E-9
8714.04913336232          7.597870947649987E-9
8739.166312091094         7.145511521200599E-9
8764.35588800947          6.6393878715264816E-9
8789.618069793463         6.0667522444505465E-9
8814.953066720604         5.410524537983344E-9
8840.361088671598         4.647280396676576E-9
8865.842346132145         3.744003370006575E-9
8891.397050194613         2.6526142423708364E-9
8917.025412559844         1.3002742351925983E-9
8942.727645538864         4.289096148651963E-10
8968.503962054652         2.731213449845372E-9
8994.354575643945         5.9676105794584775E-9
9020.279700458932         1.0882383895420536E-8
9046.279551269108         1.9295799725108016E-8
9072.354343462981         3.7148973188572105E-8
9098.50429304992          1.0137141750686119E-7
9124.729616661894         3.847697872384632E-7
9151.030531555283         8.231938878163229E-8
9177.407255612708         5.068231586290387E-8
9203.86000734478          3.8572119403919504E-8
9230.38900589197          3.21504474438342E-8
9256.994471026359         2.815646580955604E-8
9283.676623153535         2.5421924694875307E-8
9310.435683314336         2.342462888440986E-8
9337.271873186764         2.1896086568889073E-8
9364.18541508774          2.0684121612558816E-8
9391.176531975028         1.9696040666990343E-8
9418.24544744901          1.887215659729349E-8
9445.392385754565         1.8172298012504434E-8
9472.617571782965         1.756843540694093E-8
9499.921231073664         1.7040415839774423E-8
9527.30358981624          1.657337756616211E-8
9554.7648748522           1.6156120314782673E-8
9582.305313676936         1.5780042937452735E-8
9609.925134441528         1.5438430670130974E-8
9637.624565954682         1.512596474452629E-8
9665.403837684646         1.4838377401380576E-8
9693.263179761037         1.457220441083589E-8
9721.20282297684          1.4324604365097396E-8
9749.222998790226         1.4093224643351624E-8
9777.32393932656          1.3876100567872793E-8
9805.505877380247         1.3671578530275214E-8
9833.769046416694         1.3478256707966566E-8
9862.113680574275         1.3294938834544068E-8
9890.5400146662           1.3120597803398109E-8
9919.048284182534         1.2954346732174031E-8
9947.63872529208          1.2795415778078556E-8
9976.311574844403         1.2643133402029419E-8
