% Model:              AC -220722 - Horn.mph
% Version:            COMSOL 6.0.0.405
% Date:               Jul 22 2022, 22:22
% Dimension:          1
% Nodes:              481
% Expressions:        1
% Description:        Global
% freq (Hz)               FEM
200                       1021624.035094557
210                       893269.4700686239
220                       772558.0402969787
230                       658447.1410649782
240                       550065.2495904799
250                       446677.6118937771
260                       347659.84122342174
270                       252477.37640146152
280                       160669.33470973567
290                       71835.69805889482
300                       14372.945822006115
310                       98263.68463902535
320                       180108.01838785026
330                       260147.3800025855
340                       338597.6908216418
350                       415653.1445795979
360                       491489.37064981967
370                       566266.0947246004
380                       640129.3903366607
390                       713213.5955095086
400                       785642.954080314
410                       857533.0296874886
420                       928991.9313826853
430                       1000121.3826801509
440                       1071017.660182344
450                       1141772.4234180192
460                       1212473.453867685
470                       1283205.3182805488
480                       1354049.9690075996
490                       1425087.2921850625
500                       1496395.613070876
510                       1568052.1665975265
520                       1640133.5401974097
530                       1712716.0951697154
540                       1785876.3722213795
550                       1859691.4863298459
560                       1934239.5157034579
570                       2009599.8893679453
580                       2085853.7777275883
590                       2163084.490397571
600                       2241377.8855934776
610                       2320822.7954757395
620                       2401511.4720069454
630                       2483540.0581426336
640                       2567009.08953683
650                       2652024.032377288
660                       2738695.863519011
670                       2827141.699790639
680                       2917485.4841223434
690                       3009858.737162492
700                       3104401.3841957455
710                       3201262.668571689
720                       3300602.164505365
730                       3402590.90408104
740                       3507412.635624182
750                       3615265.233412758
760                       3726362.282036259
770                       3840934.86272752
780                       3959233.573813649
790                       4081530.823266015
800                       4208123.438393639
810                       4339335.646303846
820                       4475522.489270823
830                       4617073.752010682
840                       4764418.493757737
850                       4918030.297697653
860                       5078433.374815877
870                       5246209.689884715
880                       5422007.315955334
890                       5606550.272653467
900                       5800650.165983167
910                       6005220.027490656
920                       6221290.854219603
930                       6450031.4858904835
940                       6692772.633039298
950                       6951036.104734353
960                       7226570.598483514
970                       7521395.838899572
980                       7837857.429975742
990                       8178695.583637707
1000                      8547132.00111592
1010                      8946980.75931725
1020                      9382791.314576546
1030                      9860035.028224783
1040                      1.0385351493815314E7
1050                      1.0966878298097672E7
1060                      1.1614699159666644E7
1070                      1.2341463179203909E7
1080                      1.3163256607554268E7
1090                      1.4100856027035251E7
1100                      1.5181572948034124E7
1110                      1.644204324698106E7
1120                      1.7932578778868802E7
1130                      1.9724206923098154E7
1140                      2.1920557380461473E7
1150                      2.4678995017787993E7
1160                      2.825063917481761E7
1170                      3.3062407939201105E7
1180                      3.990349656728683E7
1190                      5.04131421463644E7
1200                      6.864685899618696E7
1210                      1.081265439973214E8
1220                      2.5816454337526527E8
1230                      6.395066841136765E8
1240                      1.4144738525518224E8
1250                      7.904114807319513E7
1260                      5.4595014021828644E7
1270                      4.154072447325948E7
1280                      3.3413291082672715E7
1290                      2.7861384922097404E7
1300                      2.3824484538263742E7
1310                      2.075400038387019E7
1320                      1.8337638021101553E7
1330                      1.6384539450413192E7
1340                      1.4771485074444795E7
1350                      1.3415367745924285E7
1360                      1.2258097284680434E7
1370                      1.1257844806132944E7
1380                      1.0383723704194218E7
1390                      9612430.187619891
1400                      8926049.860601181
1410                      8310583.9863549145
1420                      7754934.223707656
1430                      7250187.635630341
1440                      6789103.225064642
1450                      6365736.699071992
1460                      5975161.908617676
1470                      5613261.09879263
1480                      5276564.920152267
1490                      4962128.949281987
1500                      4667437.351884548
1510                      4390326.970769081
1520                      4128926.956083887
1530                      3881610.344777195
1540                      3646954.9149572575
1550                      3423711.303405878
1560                      3210776.857914208
1570                      3007174.0526369023
1580                      2812032.560216094
1590                      2624574.2741636187
1600                      2444100.7264293726
1610                      2269982.4609823325
1620                      2101650.013518208
1630                      1938586.2167610878
1640                      1780319.6050290833
1650                      1626418.7343965634
1660                      1476487.2685458842
1670                      1330159.707298213
1680                      1187097.6563165628
1690                      1046986.5537883288
1700                      909532.7838895349
1710                      774461.1181543054
1720                      641512.4351397045
1730                      510441.6762888688
1740                      381016.00209579786
1750                      253013.1177096913
1760                      126219.74127966264
1770                      430.19171515457487
1780                      124554.92468875495
1790                      248929.94709138983
1800                      372885.3289454329
1810                      496608.7579934565
1820                      620286.2415143313
1830                      744103.1701900552
1840                      868245.3734859903
1850                      992900.1792721613
1860                      1118257.4904748613
1870                      1244510.891898713
1880                      1371858.8009766114
1890                      1500505.6771163018
1900                      1630663.305564169
1910                      1762552.1732976951
1920                      1896402.9565021384
1930                      2032458.141688225
1940                      2170973.805610839
1950                      2312221.5829361556
1960                      2456490.85520382
1970                      2604091.2002782277
1980                      2755355.1483325902
1990                      2910641.2987992573
2000                      3070337.862996962
2010                      3234866.7097735996
2020                      3404688.007087274
2030                      3580305.57175641
2040                      3762273.063653587
2050                      3951201.1906932704
2060                      4147766.128810816
2070                      4352719.40902959
2080                      4566899.584681251
2090                      4791246.070027129
2100                      5026815.642413757
2110                      5274802.231293365
2120                      5536560.789412986
2130                      5813636.268771783
2140                      6107799.027079889
2150                      6421088.398645971
2160                      6755866.718883933
2170                      7114886.855344494
2180                      7501377.36102469
2190                      7919150.86393087
2200                      8372743.447624166
2210                      8867595.883164011
2220                      9410292.1509759
2230                      1.0008877561658686E7
2240                      1.0673289297351431E7
2250                      1.141594862993499E7
2260                      1.225259038303651E7
2270                      1.3203448457625777E7
2280                      1.4294989491798915E7
2290                      1.5562515020756342E7
2300                      1.705418598957278E7
2310                      1.8837467585564673E7
2320                      2.1009881734701715E7
2330                      2.3717847449308507E7
2340                      2.719172381768708E7
2350                      3.1816032214302998E7
2360                      3.8284338605954215E7
2370                      4.7987816853156775E7
2380                      6.418700515274454E7
2390                      9.674015551055264E7
2400                      1.9587662357854033E8
2410                      8.234309035720875E9
2420                      1.869557126075761E8
2430                      9.449365483038895E7
2440                      6.3176132726022564E7
2450                      4.7409630428145684E7
2460                      3.7906702112347625E7
2470                      3.1547638533182617E7
2480                      2.698951748393438E7
2490                      2.3558928221231047E7
2500                      2.08809785306411E7
2510                      1.873038148033285E7
2520                      1.696359634551543E7
2530                      1.5484833487046234E7
2540                      1.4227721283659155E7
2550                      1.3144817067560537E7
2560                      1.2201307190488858E7
2570                      1.1371066133417334E7
2580                      1.0634104614849776E7
2590                      9974867.227826633
2600                      9381067.003558137
2610                      8842869.195229862
2620                      8352308.003740172
2630                      7902862.205463771
2640                      7489141.369133722
2650                      7106650.437641304
2660                      6751610.75270177
2670                      6420822.339519958
2680                      6111556.763351616
2690                      5821472.921000919
2700                      5548550.235377452
2710                      5291035.195187364
2720                      5047398.228261931
2730                      4816298.649301592
2740                      4596555.970095071
2750                      4387126.262765582
2760                      4187082.565677026
2770                      3995598.545953013
2780                      3811934.802388901
2790                      3635427.3221313707
2800                      3465477.704214687
2810                      3301544.840331398
2820                      3143137.8035339736
2830                      2989809.742965569
2840                      2841152.6201983364
2850                      2696792.6525545195
2860                      2556386.3526471565
2870                      2419617.0725284913
2880                      2286191.976341648
2890                      2155839.3779426385
2900                      2028306.390220523
2910                      1903356.841244522
2920                      1780769.4192705378
2930                      1660336.01433369
2940                      1541860.2288657962
2950                      1425156.0336849105
2960                      1310046.5489414432
2970                      1196362.932320393
2980                      1083943.359033542
2990                      972632.0800101742
3000                      862278.5462388612
3010                      752736.5884964655
3020                      643863.6427389885
3030                      535520.0122726714
3040                      427568.15849235706
3050                      319872.01247492013
3060                      212296.30008000083
3070                      104705.87343339293
3080                      3034.9582342951494
3090                      111063.10545031534
3100                      219517.39028611427
3110                      328539.26057157834
3120                      438273.53448668006
3130                      548869.1840566121
3140                      660480.1668473281
3150                      773266.3161042896
3160                      887394.3007557618
3170                      1003038.6681447072
3180                      1120382.9840859096
3190                      1239621.086964904
3200                      1360958.47512462
3210                      1484613.8498258085
3220                      1610820.8398958538
3230                      1739829.9383738767
3240                      1871910.6872350753
3250                      2007354.1525865467
3260                      2146475.7408998017
3270                      2289618.4166580634
3280                      2437156.393887715
3290                      2589499.389013965
3300                      2747097.5409905994
3310                      2910447.1278322
3320                      3080097.237654405
3330                      3256657.588943728
3340                      3440807.7412174474
3350                      3633307.996549129
3360                      3835012.3687272775
3370                      4046884.095631869
3380                      4270014.299401858
3390                      4505644.568737289
3400                      4755194.463032858
3410                      5020295.24001578
3420                      5302831.517178879
3430                      5604993.136164047
3440                      5929340.272323896
3450                      6278885.914251884
3460                      6657201.374245536
3470                      7068552.701854026
3480                      7518079.105474459
3490                      8012029.294106805
3500                      8558078.93355357
3510                      9165763.67029825
3520                      9847079.980915613
3530                      1.0617334975522116E7
3540                      1.1496374429202717E7
3550                      1.251040117969224E7
3560                      1.3694743854019213E7
3570                      1.509821065319718E7
3580                      1.6790198529601548E7
3590                      1.8872832109895516E7
3600                      2.15028390019938E7
3610                      2.493367830055906E7
3620                      2.9603790592035536E7
3630                      3.634302553407077E7
3640                      4.693492328756124E7
3650                      6.603905524462044E7
3660                      1.1090376824212745E8
3670                      3.423504929160138E8
3680                      3.1718554730250514E8
3690                      1.0855488514321049E8
3700                      6.5512998629394665E7
3710                      4.6911253299727045E7
3720                      3.652637106827813E7
3730                      2.9892227594358947E7
3740                      2.528287611608264E7
3750                      2.1890488763032123E7
3760                      1.9286519893224258E7
3770                      1.722249181177773E7
3780                      1.5544406684776241E7
3790                      1.415173768572315E7
3800                      1.2976073798003184E7
3810                      1.1969242153445553E7
3820                      1.1096338675196266E7
3830                      1.0331453149967788E7
3840                      9654946.984483035
3850                      9051663.26196627
3860                      8509716.70694677
3870                      8019655.593465806
3880                      7573868.711883686
3890                      7166157.679713604
3900                      6791423.200375617
3910                      6445431.3558261255
3920                      6124637.08416757
3930                      5826049.156172385
3940                      5547125.696547079
3950                      5285692.480182101
3960                      5039878.4130990505
3970                      4808064.122791142
3980                      4588840.65090098
3990                      4380976.004351999
4000                      4183387.873066679
4010                      3995121.226145755
4020                      3815329.7968991776
4030                      3643260.689968616
4040                      3478241.511721872
4050                      3319669.5527445017
4060                      3167002.649077832
4070                      3019751.424388124
4080                      2877472.6740133013
4090                      2739763.697845033
4100                      2606257.4252814334
4110                      2476618.204243804
4120                      2350538.149206479
4130                      2227733.961580001
4140                      2107944.1506265528
4150                      1990926.5951128993
4160                      1876456.3956747127
4170                      1764323.9758691015
4180                      1654333.3964509757
4190                      1546300.8528096788
4200                      1440053.3299730206
4210                      1335427.3932812284
4220                      1232268.0959138756
4230                      1130427.987009121
4240                      1029766.2062510622
4250                      930147.6525768196
4260                      831442.2161411291
4270                      733524.0639012129
4280                      636270.9702113136
4290                      539563.6846422526
4300                      443285.32991702284
4310                      347320.8234135053
4320                      251556.31605772203
4330                      155878.64276350228
4340                      60174.77875555204
4350                      35668.703799260606
4360                      131766.18442452484
4370                      228233.55391044874
4380                      325188.7907218824
4390                      422752.5604319989
4400                      521048.8448107205
4410                      620205.6077523791
4420                      720355.5059263991
4430                      821636.6529009895
4440                      924193.4465593724
4450                      1028177.4708786423
4460                      1133748.4847261657
4470                      1241075.5121510006
4480                      1350338.050903941
4490                      1461727.4185971003
4500                      1575448.2591582446
4510                      1691720.2361429622
4520                      1810779.9441990939
4530                      1932883.0757281764
4540                      2058306.886790338
4550                      2187353.0148629383
4560                      2320350.7115887315
4570                      2457660.56663868
4580                      2599678.814902278
4590                      2746842.339295984
4600                      2899634.50661238
4610                      3058592.005517807
4620                      3224312.8959724433
4630                      3397466.1306028506
4640                      3578802.8743901816
4650                      3769170.0342549523
4660                      3969526.5211670585
4670                      4180962.9134598365
4680                      4404725.383549585
4690                      4642245.009313518
4700                      4895173.941310875
4710                      5165430.374897867
4720                      5455254.936175334
4730                      5767282.013019633
4740                      6104630.868638298
4750                      6471023.2510835705
4760                      6870936.948430364
4770                      7309808.797568622
4780                      7794306.784751437
4790                      8332700.32427511
4800                      8935372.691006836
4810                      9615543.632633274
4820                      1.0390310120561058E7
4830                      1.1282181591827758E7
4840                      1.2321407364026124E7
4850                      1.3549617979390798E7
4860                      1.5025735767423242E7
4870                      1.683599567484368E7
4880                      1.9111848249231536E7
4890                      2.2064069345590893E7
4900                      2.6053234243682377E7
4910                      3.175155876515563E7
4920                      4.0572395302054904E7
4930                      5.6080320860773146E7
4940                      9.059817391226706E7
4950                      2.3494066742890558E8
4960                      3.9652692513649374E8
4970                      1.0745168879675241E8
4980                      6.208531605895113E7
4990                      4.360623549090592E7
5000                      3.356484812015677E7
