% Model:              AC -220722 - Compressor.mph
% Version:            COMSOL 6.0.0.405
% Date:               Jul 22 2022, 20:34
% Dimension:          1
% Nodes:              1601
% Expressions:        1
% Description:        Global
% freq (Hz)               2DX, |Z<sub>ac</sub>|
100                       4.19405250805357E7
100.28823774509846        4.1819966697829865E7
100.57730630017382        4.1699754745588094E7
100.8672080599342         4.157988826326862E7
101.15794542598982        4.1460366240350075E7
101.44952080687364        4.134118765655927E7
101.74193661806045        4.1222351558185644E7
102.03519528198785        4.110385696577025E7
102.32929922807536        4.098570286207139E7
102.62425089274542        4.086788835283217E7
102.92005271944286        4.0750412351434454E7
103.21670715865542        4.063327396273307E7
103.5142166679344         4.051647216662895E7
103.8125837119143         4.040000601514469E7
104.11181076233397        4.028387457789154E7
104.41190029805638        4.0168076828312345E7
104.71285480508996        4.005261184807399E7
105.01467677660837        3.9937478670742586E7
105.3173687129716         3.98226763616026E7
105.6209331217469         3.970820393944837E7
105.92537251772886        3.9594060467829525E7
106.2306894229611         3.948024499680754E7
106.53688636675629        3.9366756583675064E7
106.84396588571794        3.925359433102278E7
107.1519305237606         3.9140757230606705E7
107.46078283213176        3.9028244377749726E7
107.77052536943224        3.891605485572191E7
108.08116070163774        3.8804187740349784E7
108.39269140212039        3.869264206190971E7
108.70512005166928        3.8581416935542196E7
109.01844923851279        3.8470511419148766E7
109.33268155833908        3.8359924582063034E7
109.64781961431851        3.824965555711018E7
109.96386601712433        3.813970339024983E7
110.28082338495518        3.803006718497228E7
110.59869434355599        3.792074601564991E7
110.9174815262401         3.781173898797917E7
111.23718757391133        3.770304522388496E7
111.55781513508519        3.7594663791989684E7
111.87936686591168        3.748659377847753E7
112.2018454301963         3.7378834347124055E7
112.52525349942316        3.7271384552103266E7
112.84959375277622        3.716424353272929E7
113.17486887716188        3.7057410371194005E7
113.50108156723155        3.6950884227586605E7
113.82823452540319        3.684466415919108E7
114.1563304618846         3.673874934469747E7
114.48537209469495        3.6633138884982266E7
114.81536214968828        3.652783188785745E7
115.14630336057506        3.6422827499209195E7
115.47819846894582        3.631812484497022E7
115.81105022429303        3.6213723049144275E7
116.14486138403426        3.6109621270421766E7
116.47963471353533        3.600581863657046E7
116.81537298613243        3.590231427984211E7
117.15207898315602        3.579910733733278E7
117.48975549395291        3.569619697162605E7
117.82840531591037        3.5593582305797264E7
118.16803125447831        3.54912624979208E7
118.50863612319345        3.538923674586656E7
118.85022274370189        3.528750412898794E7
119.19279394578271        3.518606386026254E7
119.53635256737189        3.508491507728007E7
119.8809014545849         3.498405694381964E7
120.22644346174131        3.488348862123796E7
120.57298145138739        3.478320929303777E7
120.92051829432084        3.468321810837352E7
121.26905686961376        3.45835142583745E7
121.6186000646368         3.448409689407493E7
121.96915077508342        3.438496521352987E7
122.32071190499313        3.428611836555916E7
122.67328636677647        3.4187555560912125E7
123.02687708123811        3.408927597250533E7
123.38148697760212        3.399127880241559E7
123.73711899353519        3.389356320500869E7
124.09377607517196        3.379612840200096E7
124.45146117713857        3.3698973564059004E7
124.81017726257751        3.360209789615227E7
125.16992730317256        3.35055006009002E7
125.53071427917247        3.340918086814533E7
125.89254117941675        3.3313137908873513E7
126.25541100135932        3.3217370913508583E7
126.61932675109443        3.312187910794301E7
126.9842914433805         3.302666168568455E7
127.35030810166616        3.2931717870536406E7
127.71737975811435        3.283704685014218E7
128.08550945362785        3.274264788318466E7
128.45470023787485        3.264852015200943E7
128.82495516931337        3.2554662892439928E7
129.1962773152175         3.2461075316372808E7
129.5686697517019         3.2367756667738304E7
129.94213556374828        3.227470614046609E7
130.31667784523           3.2181922999730717E7
130.69229969893817        3.2089406457261443E7
131.06900423660773        3.1997155751931325E7
131.4467945789422         3.1905170115465727E7
131.82567385564073        3.181344878807783E7
132.20564520542297        3.1721991010681674E7
132.58671177605595        3.163079602357754E7
132.9688767243793         3.1539863071519714E7
133.3521432163324         3.1449191407518398E7
133.73651442697962        3.1358780280571297E7
134.1219935405371         3.1268628925362922E7
134.50858375039945        3.1178736602413047E7
134.89628825916532        3.1089102585115757E7
135.28511027866506        3.0999726109644294E7
135.67505302998612        3.091060644005029E7
136.06611974350088        3.0821742851955093E7
136.4583136588924         3.0733134585079003E7
136.85163802518215        3.064478092843419E7
137.24609610075626        3.055668112609254E7
137.6416911533926         3.0468834472577468E7
138.03842646028852        3.038124022986259E7
138.4363053080869         3.0293897672660083E7
138.83533099290457        3.020680607255325E7
139.23550682035835        3.0119964705765206E7
139.63683610559377        3.0033372867063105E7
140.03932217331138        2.9947029838086616E7
140.44296835779474        2.9860934875812545E7
140.84777800293858        2.977508730873453E7
141.2537544622754         2.9689486395235598E7
141.66090109900438        2.9604131435061727E7
142.06922128601818        2.9519021730124895E7
142.47871840593191        2.9434156564202707E7
142.8893958511102         2.9349535224542283E7
143.30125702369628        2.92651570388208E7
143.71430533563912        2.918102128917247E7
144.12854420872233        2.9097127276109062E7
144.5439770745928         2.901347431637412E7
144.96060737478808        2.8930061707108673E7
145.37843856076623        2.884688875725054E7
145.79747409393298        2.8763954783821944E7
146.21771744567184        2.8681259087892253E7
146.63917209737153        2.859880100900458E7
147.06184154045604        2.851657984378096E7
147.4857292764125         2.8434594921339307E7
147.91083881682073        2.8352845545068633E7
148.33717368338253        2.827133106226957E7
148.76473740795015        2.8190050773579482E7
149.19353353255647        2.8109004025249004E7
149.6235656094433         2.8028190137648556E7
150.05483720109186        2.7947608438147314E7
150.48735188025145        2.786725826161752E7
150.9211132299693         2.7787138951251924E7
151.35612484362088        2.770724982631563E7
151.79239032493837        2.7627590235237185E7
152.22991328804204        2.754815952353858E7
152.66869735746866        2.746895702021131E7
153.10874616820303        2.738998208593649E7
153.55006336570662        2.7311234043031693E7
153.9926526059492         2.7232712258073226E7
154.4365175554379         2.7154416084189415E7
154.88166189124811        2.7076344844677567E7
155.32808930105446        2.6998497922071964E7
155.7758034831602         2.692087465581734E7
156.22480814652906        2.684347441434487E7
156.67510701081486        2.6766296547245983E7
157.12670380639344        2.668934041426265E7
157.57960227439236        2.6612605383262422E7
158.03380616672317        2.653609082167942E7
158.48931924611142        2.6459796087057512E7
158.94614528612814        2.638372055255426E7
159.4042880712218         2.630786358271604E7
159.86375139674837        2.6232224556607313E7
160.32453906900417        2.6156802841052007E7
160.786654905256          2.608159781679959E7
161.25010273377416        2.600660885815198E7
161.71488639386294        2.5931835336777404E7
162.18100973589299        2.5857276650050376E7
162.64847662133363        2.5782932163944528E7
163.1172909227838         2.5708801278192475E7
163.58745652400532        2.56348833578532E7
164.05897731995387        2.556117780994922E7
164.5318572168125         2.5487684016042467E7
165.00610013202268        2.5414401360035807E7
165.48170999431815        2.5341329250081602E7
165.95869074375614        2.5268467068746433E7
166.4370463317507         2.5195814219955876E7
166.91678072110582        2.512337009492071E7
167.3978978860471         2.5051134101489924E7
167.88040181225605        2.497910563254934E7
168.36429649690177        2.490728409625878E7
168.84958594867533        2.4835668900153734E7
169.33627418782172        2.4764259447655376E7
169.82436524617444        2.4693055148041435E7
170.31386316718778        2.4622055407013856E7
170.8047720059708         2.4551259643720407E7
171.29709582932136        2.448066726930728E7
171.79083871575875        2.441027769361901E7
172.2860047555588         2.4340090343003586E7
172.78259805078628        2.4270104619237963E7
173.2806227153304         2.4200319965871785E7
173.78008287493762        2.413073579154854E7
174.2809826672464         2.406135152053546E7
174.78332624182192        2.3992166578601398E7
175.28711776018926        2.3923180392278638E7
175.7923613958693         2.385439239153262E7
176.2990613344119         2.3785802007560465E7
176.80722177343196        2.3717408663649514E7
177.31684692264275        2.364921179941204E7
177.82794100389228        2.3581210858405422E7
178.34050825119692        2.3513405262553513E7
178.85455291077713        2.3445794460512195E7
179.37007924109307        2.3378377884108342E7
179.88709151287873        2.3311154984698698E7
180.40559400917866        2.3244125195869673E7
180.92559102538203        2.3177287964637835E7
181.44708686925964        2.3110642744247817E7
181.97008586099827        2.3044188974474E7
182.49459233323773        2.297792610534037E7
183.02061063110568        2.2911853589477725E7
183.54814511225402        2.2845970889347386E7
184.07720014689562        2.2780277438926756E7
184.60778011783924        2.2714772713524297E7
185.13988942052723        2.264945615130914E7
185.67353246307053        2.2584327231980793E7
186.20871366628674        2.2519385400635168E7
186.7454374637353         2.2454630126907244E7
187.28370830175484        2.239006087158909E7
187.8235306395006         2.2325677100692872E7
188.36490894898           2.226147827882454E7
188.90784771509132        2.2197463876731507E7
189.45235143565915        2.213363336517462E7
189.9984246214733         2.2069986209545225E7
190.54607179632484        2.200652188609859E7
191.09529749704404        2.1943239870502524E7
191.64610627353872        2.1880139635295413E7
192.1985026888304         2.181722066240731E7
192.75249131909365        2.1754482426260605E7
193.30807675369272        2.1691924410714217E7
193.86526359522077        2.162954609225366E7
194.42405645953662        2.1567346957478147E7
194.98445997580455        2.1505326495216984E7
195.54647878653103        2.1443484184155703E7
196.11011754760474        2.1381819514947727E7
196.6753809283339         2.1320331978952713E7
197.24227361148533        2.1259021064578712E7
197.81080029332404        2.119788626462877E7
198.38096568365052        2.1136927070071924E7
198.95277450584163        2.1076142978048388E7
199.52623149688787        2.1015533486794453E7
200.10134140743443        2.0955098090671804E7
200.678109001819          2.089483629540886E7
201.25653905811188        2.0834747591718014E7
201.83663636815618        2.077483148824248E7
202.41840573760612        2.0715087489874415E7
203.00185198596844        2.0655515097618297E7
203.5869799466407         2.0596113821979288E7
204.17379446695296        2.05368831641963E7
204.76230040820647        2.0477822645541776E7
205.3525026457146         2.0418931762863312E7
205.94440606884388        2.0360210036035772E7
206.53801558105292        2.0301656976642676E7
207.13333609993484        2.0243272103338223E7
207.7303725572563         2.0185054927620392E7
208.32912989899995        2.012700496645162E7
208.92961308540387        2.006912174522514E7
209.53182709100417        2.001140477791798E7
210.13577690467469        1.9953853588532824E7
210.74146752966985        1.9896467704384048E7
211.34890398366477        1.983924664504494E7
211.95809129879737        1.9782189935805663E7
212.56903452171076        1.972529710691773E7
213.1817387135935         1.966856768687223E7
213.79620895022325        1.9612001204330385E7
214.41245032200715        1.9555597193924785E7
215.03046793402564        1.9499355184476398E7
215.65026690607334        1.944327471166233E7
216.271852372702          1.9387355308055926E7
216.89522948326376        1.933159651425484E7
217.52040340195222        1.927599786954108E7
218.14737930784707        1.9220558910630472E7
218.77616239495518        1.9165279176294822E7
219.40675787225535        1.9110158212933093E7
220.03917096373996        1.9055195559129972E7
220.673406908459          1.900039076360659E7
221.30947096056389        1.8945743372731496E7
221.94736838934972        1.889125293023099E7
222.58710447930054        1.8836918985226795E7
223.2286845301314         1.8782741089509178E7
223.872113856834          1.87287187952716E7
224.51739778971898        1.867485165369714E7
225.1645416744618         1.8621139215992205E7
225.81355087214533        1.8567581040072948E7
226.46443075930597        1.8514176681572117E7
227.11718672797664        1.8460925697858803E7
227.77182418573219        1.840782764934336E7
228.42834855573477        1.8354882092519827E7
229.08676527677724        1.8302088591120318E7
229.74707980333002        1.824944670974319E7
230.40929760558447        1.819695600869185E7
231.07342416950002        1.8144616055981144E7
231.73946499684797        1.809242641428768E7
232.40742560525788        1.8040386653717298E7
233.07731152826386        1.7988496344429985E7
233.7491283153488         1.7936755054190125E7
234.42288153199226        1.7885162356351342E7
235.0985767597147         1.7833717822492603E7
235.77621959612546        1.7782421026372094E7
236.45581565496772        1.773127154281456E7
237.13737056616552        1.768026894775752E7
237.8208899758712         1.762941281888219E7
238.50637954651052        1.757870273669941E7
239.19384495683136        1.7528138278477844E7
239.88329190194898        1.7477719027216416E7
240.57472609339513        1.7427444564760122E7
241.26815325916328        1.73773144741171E7
241.96357914375818        1.7327328340278286E7
242.66100950824142        1.7277485748808708E7
243.36045013028115        1.72277862887667E7
244.06190680419814        1.717822954224854E7
244.76538534101462        1.7128815106381793E7
245.4708915685031         1.707954256931595E7
246.17843133123299        1.7030411521709487E7
246.8880104906209         1.6981421555401213E7
247.59963492497727        1.693257226895512E7
248.31331052955704        1.6883863252726395E7
249.02904321660677        1.683529410617166E7
249.74683891541434        1.6786864425958358E7
250.4667035723588         1.6738573810217848E7
251.18864315095797        1.6690421861347772E7
251.91266363191968        1.6642408176132169E7
252.63877101318954        1.6594532361988338E7
253.36697131000244        1.6546794018618057E7
254.09727055493065        1.6499192752285799E7
254.82967479793464        1.6451728168462662E7
255.56419010641395        1.6404399872673305E7
256.30082256525554        1.6357207473062506E7
257.03957827688646        1.631015058091602E7
257.78046336132206        1.6263228802635312E7
258.52348395621914        1.6216441752634421E7
259.26864621692425        1.6169789042694267E7
260.0159563165272         1.6123270286117725E7
260.7654204459099         1.6076885097512009E7
261.5170448137997         1.6030633091197485E7
262.27083564681914        1.5984513887327153E7
263.02679918953817        1.593852709909829E7
263.7849417045267         1.5892672350005083E7
264.54526947240487        1.5846949258082002E7
265.30778879189677        1.5801357444449652E7
266.0725059798809         1.575589653131536E7
266.83942737144423        1.5710566144849544E7
267.6085593199333         1.5665365904862247E7
268.3799081970073         1.5620295439054886E7
269.1534803926917         1.5575354374929233E7
269.9292823154293         1.55305423399638E7
270.7073203921358         1.5485858962198965E7
271.4876010682502         1.5441303871579673E7
272.27013080779125        1.5396876698745025E7
273.0549160934083         1.5352577075714955E7
273.8419634264361         1.5308404636206906E7
274.6312793269498         1.5264359012985911E7
275.4228703338166         1.5220439843420995E7
276.21674300475223        1.5176646762065401E7
277.01290391637326        1.5132979404882975E7
277.8113596642536         1.5089437412485525E7
278.61211686297696        1.504602042345169E7
279.41518214619384        1.5002728077520203E7
280.22056216667454        1.495956001551726E7
281.028263596366          1.491651588228951E7
281.8382931264455         1.487359531900147E7
282.65065746737685        1.4830797970655268E7
283.4653633489668         1.478812348207186E7
284.28241752041873        1.4745571501007987E7
285.10182675039096        1.4703141675158052E7
285.9235978270505         1.466083365021925E7
286.74773755813163        1.4618647078920742E7
287.57425277099003        1.457658161040779E7
288.40315031266056        1.453463689704649E7
289.23443704991473        1.4492812588281441E7
290.0681198693153         1.4451108341250876E7
290.90420567727614        1.4409523808428446E7
291.7427014001166         1.43680586467274E7
292.5836139841216         1.4326712512168288E7
293.42695039559703        1.428548506167488E7
294.2727176209282         1.4244375953327369E7
295.1209226666387         1.420338484758561E7
295.9715725594465         1.4162511404767595E7
296.8246743463243         1.4121755285609603E7
297.68023509455566        1.4081116152786467E7
298.538261891796          1.4040593670279795E7
299.39876184612876        1.4000187500997046E7
300.26174208612673        1.3959897310423432E7
301.12720976090884        1.3919722766558263E7
301.9951720402016         1.3879663534392802E7
302.8656361143965         1.3839719283646239E7
303.73860919461043        1.3799889681855004E7
304.6140985127464         1.3760174400979413E7
305.49211132155125        1.3720573110017302E7
306.37265489467813        1.3681085481939098E7
307.25573652674456        1.3641711189930996E7
308.1413635333949         1.3602449907362953E7
309.0295432513592         1.3563301308931233E7
309.9202830385147         1.3524265069393884E7
310.8135902739477         1.3485340867093885E7
311.70947235801253        1.3446528378449595E7
312.6079367123956         1.3407827282999605E7
313.50899078017386        1.3369237257823389E7
314.4126420258796         1.3330757986680986E7
315.3188979355595         1.3292389146846889E7
316.22776601683796        1.3254130424396906E7
317.1392537989798         1.321598149851764E7
318.05336883295206        1.317794205555269E7
318.9701186914858         1.3140011781334164E7
319.88951096913974        1.3102190358694006E7
320.81155328236366        1.3064477476021988E7
321.7362532695601         1.302687282074191E7
322.66361859114824        1.2989376080887957E7
323.5936569296281         1.2951986947191479E7
324.5263759896437         1.2914705107598651E7
325.46178349804603        1.2877530254966563E7
326.3998872039577         1.2840462080360645E7
327.3406948788383         1.2803500277557105E7
328.28421431654635        1.2766644539436892E7
329.23045333340656        1.2729894562128585E7
330.1794197682719         1.2693250040006237E7
331.1311214825911         1.2656710668581303E7
332.0855663604718         1.2620276146410601E7
333.0427623087463         1.2583946171850516E7
334.0027172570387         1.2547720443767328E7
334.9654391578276         1.251159866234547E7
335.9309359865153         1.2475580526861707E7
336.8992157414906         1.2439665739445763E7
337.87028644419826        1.2403854003997367E7
338.84415613920277        1.236814502211064E7
339.82083289425594        1.2332538498604523E7
340.8003248003648         1.2297034138245326E7
341.7826399718576         1.2261631647387773E7
342.76778654645045        1.2226330732724385E7
343.7557726853155         1.2191131101682357E7
344.74660657314945        1.2156032462798085E7
345.7402964182394         1.2121034523784708E7
346.73685045253166        1.2086136996701783E7
347.7362769317011         1.2051339591641854E7
348.7385841352184         1.2016642020031469E7
349.74378036641804        1.1982043994810015E7
350.75187395256796        1.19475452290175E7
351.76287324493944        1.1913145437079007E7
352.7767866188738         1.1878844334019005E7
353.7936224738549         1.1844641635860443E7
354.8133892335753         1.1810537058839252E7
355.8360953460096         1.177653032079545E7
356.86174928348134        1.1742621139027039E7
357.8903595427346         1.1708809233935686E7
358.92193464500536        1.1675094324016673E7
359.9564831360895         1.1641476131281951E7
360.9940135864167         1.1607954376399523E7
362.03453459111824        1.1574528782293785E7
363.0780547701014         1.1541199071022043E7
364.1245827681181         1.1507964967345672E7
365.1741272548377         1.1474826195648037E7
366.2266969249197         1.1441782480986461E7
367.2823004980846         1.140883355058688E7
368.34094671918604        1.1375979130279195E7
369.4026443582834         1.1343218948785089E7
370.46740221071576        1.1310552734215362E7
371.53522909717276        1.1277980216029458E7
372.6061338637685         1.124550112447397E7
373.6801253821156         1.121311519024595E7
374.7572125493981         1.1180822145358559E7
375.8374042884443         1.1148621721858073E7
376.92070954780155        1.1116513653197873E7
378.0071373018112         1.1084497673513027E7
379.0966965506808         1.1052573517338093E7
380.1893963205613         1.1020740919483026E7
381.2852456636187         1.0988999617959304E7
382.38425365811264        1.0957349348173954E7
383.4864294084684         1.0925789848758275E7
384.5917820453535         1.0894320857869476E7
385.70032072575503        1.086294211514707E7
386.81205463305207        1.0831653360259686E7
387.92699297709544        1.0800454333912505E7
389.04514499428046        1.0769344777946074E7
390.166519947627          1.073832443451482E7
391.2911271268532         1.0707393046466772E7
392.4189758484536         1.0676550357681762E7
393.55007545577723        1.0645796112720873E7
394.68443531910424        1.0615130056399174E7
395.82206483572264        1.0584551934727633E7
396.96297343000685        1.0554061494844189E7
398.1071705534973         1.052365848355653E7
399.25466568497603        1.0493342649158498E7
400.4054683305464         1.0463113740685152E7
401.5595880237129         1.0432971507746244E7
402.71703432545905        1.0402915699810967E7
403.87781682432615        1.037294606894255E7
405.0419451364931         1.0343062366184495E7
406.20942890585746        1.031326434430292E7
407.3802778041126         1.0283551755856799E7
408.55450153083103        1.0253924354922097E7
409.73210981354134        1.0224381896444174E7
410.9131124078122         1.0194924134882586E7
412.0975190973304         1.0165550826927269E7
413.28533969398285        1.0136261728785284E7
414.4765840379393         1.0107056597985404E7
415.67126199773094        1.0077935192680227E7
416.8693834703355         1.0048897270992221E7
418.0709583812558         1.0019942592882238E7
419.2759966846055         9991070.918143257
420.4845083631883         9962282.00776186
421.6965034285823         9933575.623427507
422.91199192122343        9904951.52679381
424.1309839104881         9876409.480944159
425.35348949477566        9847949.248895893
426.57951880159254        9819570.596092764
427.80908198763814        9791273.286292246
429.0421892388857         9763057.084968077
430.2788507706685         9734921.759526335
431.519076827765          9706867.075429471
432.76287768448304        9678892.801040469
434.010263644744          9650998.704606486
435.26124504216904        9623184.554069923
436.5158322401661         9595450.120252524
437.7740356320125         9567795.1730545
439.03586564094473        9540219.482417671
440.30133272024125        9512722.821076136
441.57044735331255        9485304.960415844
442.8432200537849         9457965.673612466
444.1196613655889         9430704.734104939
445.39978186304796        9403521.9157439
446.683592150963          9376416.993439227
447.97110286470377        9349389.742680449
449.26232467029325        9322439.939590752
450.5572682644998         9295567.360870207
451.8559443749226         9268771.783925049
453.1583637600818         9242052.986169277
454.4645372095085         9215410.746704284
455.7744755438333         9188844.84482967
457.0881896148752         9162355.060067816
458.405690305732          9135941.173504597
459.7269885308723         9109602.965946829
461.0520952362227         9083340.218685456
462.38102139926036        9057152.71477381
463.71377802910433        9031040.236976217
465.05037616660627        9005002.568971198
466.3908268844408         8979039.495081773
467.73514128719813        8953150.800151322
469.0833305114774         8927336.269618614
470.435405725976          8901595.689152166
471.79137813158536        8875928.846193245
473.15125896148027        8850335.52742602
474.5150594812158         8824815.52156431
475.8827909888171         8799368.616235351
477.2544648148744         8773994.601338226
478.6300923226385         8748693.26645433
480.00968490811147        8723464.401270822
481.39325400014485        8698307.79761673
482.7808110605305         8673223.24634825
484.1723675840994         8648210.540115666
485.5679350988136         8623269.471267972
486.9675251658631         8598399.833592106
488.37114937976247        8573601.420696553
489.77881936844614        8548874.027182646
491.1905467933636         8524217.44783731
492.6063433495771         8499631.478795255
494.0262207658599         8475115.916170891
495.45019080479057        8450670.556676686
496.87826526285176        8426295.197858594
498.3104559705293         8401989.637750773
499.7467747924086         8377753.674748478
501.18723362727246        8353587.108361539
502.63184440820055        8329489.737984331
504.0806191026696         8305461.364036149
505.53356971264895        8281501.787985552
506.99070827470445        8257610.810141476
508.4520468600936         8233788.23363017
509.9175975748702         8210033.860218117
511.3873725599802         8186347.493441937
512.8613839913648         8162728.936972493
514.3396440800623         8139177.995134389
515.8221650723056         8115694.47247858
517.3089592496281         8092278.174861277
518.8000389289609         8068928.907964741
520.2954164627397         8045646.478196128
521.7951042390025         8022430.692638706
523.2991146814946         7999281.359095301
524.8074602497722         7976198.285827591
526.3201534393047         7953181.281146122
527.8372067815769         7930230.154543981
529.3586328441943         7907344.715688843
530.8844442309885         7884524.774946802
532.4146535821184         7861770.143556545
533.9492735741767         7839080.632457447
535.4883169202959         7816456.053802473
537.0317963702527         7793896.220027252
538.5797247105721         7771400.944396017
540.1321147646348         7748970.039956159
541.688979392785          7726603.321525191
543.250331492433          7704300.603178243
544.8161839981667         7682061.700439772
546.386549881854          7659886.428791829
547.9614421527547         7637774.604377869
549.5408738576248         7615726.04417542
551.1248580808259         7593740.565332812
552.7134079444351         7571817.985664663
554.3065366083505         7549958.123405977
555.9042572704037         7528160.797258323
557.5065831664657         7506425.827049693
559.1135275705602         7484753.032331043
560.72510379497           7463142.233241587
562.341325190349          7441593.251022162
563.962205145834          7420105.907049587
565.5877570891539         7398680.023016866
567.2179944867406         7377315.42150281
568.8529308438414         7356011.925451866
570.4925797046321         7334769.358150958
572.1369546523267         7313587.543599948
573.7860693092911         7292466.306382286
575.4399373371566         7271405.471213867
577.0985724369333         7250404.863661263
578.7619883491209         7229464.309698844
580.4301988538248         7208583.635459007
582.1032177708715         7187762.668355204
583.7810589599193         7167001.23536912
585.4637363205773         7146299.16467156
587.1512637925164         7125656.284543576
588.843655355589          7105072.423811877
590.5409250299413         7084547.412216838
592.2430868761305         7064081.079242284
593.9501549952438         7043673.25530632
595.6621435290103         7023323.77144337
597.3790666599235         7003032.458753739
599.1009386113537         6982799.149224197
600.8277736476707         6962623.674904096
602.5595860743581         6942505.868782866
604.2963902381329         6922445.563938301
606.038200527066          6902442.594116034
607.7850313707005         6882496.793652624
609.5368972401693         6862607.996930356
611.2938126483169         6842776.039328142
613.0557921498208         6823000.756297837
614.8228503413089         6803281.983965473
616.5950018614822         6783619.558840723
618.372261391237          6764013.318009654
620.1546436537853         6744463.098795794
621.9421634147765         6724968.739135878
623.7348354824192         6705530.07756946
625.5326747076073         6686146.952796976
627.3356959840379         6666819.204206174
629.14391424834           6647546.6715321895
630.957344480193          6628329.1949286
632.7760017024558         6609166.61529272
634.5999009812872         6590058.773454839
636.429057426272          6571005.51125
638.263486190549          6552006.67059267
640.1032024709307         6533062.093928852