% Model:              AC -220722 - Compressor.mph
% Version:            COMSOL 6.0.0.405
% Date:               Jul 22 2022, 20:34
% Dimension:          1
% Nodes:              1601
% Expressions:        1
% Description:        Global
% freq (Hz)               2DX, |Z<sub>ac</sub>|
100                       44689.222319355504
100.28823774509846        44818.252301901666
100.57730630017382        44947.656096983796
100.8672080599342         45077.43479849288
101.15794542598982        45207.58950380579
101.44952080687364        45338.12131346827
101.74193661806045        45469.031331356084
102.03519528198785        45600.32066467727
102.32929922807536        45731.990424055424
102.62425089274542        45864.04172329034
102.92005271944286        45996.475679814284
103.21670715865542        46129.29341414554
103.5142166679344         46262.49605037856
103.8125837119143         46396.08471598283
104.11181076233397        46530.06054163319
104.41190029805638        46664.4246618346
104.71285480508996        46799.1782140495
105.01467677660837        46934.322339495586
105.3173687129716         47069.858182722266
105.6209331217469         47205.78689181973
105.92537251772886        47342.10961817925
106.2306894229611         47478.82751691548
106.53688636675629        47615.94174645646
106.84396588571794        47753.453468750486
107.1519305237606         47891.36384948984
107.46078283213176        48029.67405759705
107.77052536943224        48168.385265651166
108.08116070163774        48307.498649808294
108.39269140212039        48447.01538992399
108.70512005166928        48586.936669124625
109.01844923851279        48727.26367440014
109.33268155833908        48867.99759622334
109.64781961431851        49009.13962861937
109.96386601712433        49150.69096944466
110.28082338495518        49292.6528199729
110.59869434355599        49435.02638527819
110.9174815262401         49577.81287401274
111.23718757391133        49721.0134985551
111.55781513508519        49864.629474908346
111.87936686591168        50008.662022911834
112.2018454301963         50153.112365884954
112.52525349942316        50297.98173112436
112.84959375277622        50443.271349521776
113.17486887716188        50588.98245574225
113.50108156723155        50735.11628816635
113.82823452540319        50881.67408911815
114.1563304618846         51028.657104426
114.48537209469495        51176.06658400888
114.81536214968828        51323.90378143458
115.14630336057506        51472.16995413427
115.47819846894582        51620.86636334984
115.81105022429303        51769.99427426521
116.14486138403426        51919.55495580353
116.47963471353533        52069.54968083418
116.81537298613243        52219.979726118014
117.15207898315602        52370.84637233493
117.48975549395291        52522.15090403879
117.82840531591037        52673.89460975859
118.16803125447831        52826.078781972385
118.50863612319345        52978.70471687977
118.85022274370189        53131.77371512237
119.19279394578271        53285.28708092952
119.53635256737189        53439.24612260584
119.8809014545849         53593.65215263593
120.22644346174131        53748.50648736822
120.57298145138739        53903.81044717358
120.92051829432084        54059.565356630155
121.26905686961376        54215.77254412648
121.6186000646368         54372.43334252689
121.96915077508342        54529.549088299194
122.32071190499313        54687.12112249681
122.67328636677647        54845.15078996026
123.02687708123811        55003.63943975267
123.38148697760212        55162.58842510696
123.73711899353519        55321.99910349642
124.09377607517196        55481.87283645323
124.45146117713857        55642.2109897583
124.81017726257751        55803.01493337108
125.16992730317256        55964.2860415141
125.53071427917247        56126.02569261863
125.89254117941675        56288.2352693374
126.25541100135932        56450.916158710555
126.61932675109443        56614.06975192637
126.9842914433805         56777.69744450832
127.35030810166616        56941.80063626521
127.71737975811435        57106.3807314897
128.08550945362785        57271.43913850634
128.45470023787485        57436.97727030397
128.82495516931337        57602.99654407585
129.1962773152175         57769.498381482605
129.5686697517019         57936.48420839906
129.94213556374828        58103.9554555381
130.31667784523           58271.91355743779
130.69229969893817        58440.3599536168
131.06900423660773        58609.29608777897
131.4467945789422         58778.723408214275
131.82567385564073        58948.64336767825
132.20564520542297        59119.057423377344
132.58671177605595        59289.96703713858
132.9688767243793         59461.373675314746
133.3521432163324         59633.27880866729
133.73651442697962        59805.683912706816
134.1219935405371         59978.59046756841
134.50858375039945        60151.99995787119
134.89628825916532        60325.91387278319
135.28511027866506        60500.33370633684
135.67505302998612        60675.26095699337
136.06611974350088        60850.69712799878
136.4583136588924         61026.643727404014
136.85163802518215        61203.10226766808
137.24609610075626        61380.07426634461
137.6416911533926         61557.561245307865
138.03842646028852        61735.564731473176
138.4363053080869         61914.0862564765
138.83533099290457        62093.12735672461
139.23550682035835        62272.68957346305
139.63683610559377        62452.77445260923
140.03932217331138        62633.38354506178
140.44296835779474        62814.5184066902
140.84777800293858        62996.180597843646
141.2537544622754         63178.37168425024
141.66090109900438        63361.09323622121
142.06922128601818        63544.34682901475
142.47871840593191        63728.134042976686
142.8893958511102         63912.456463466755
143.30125702369628        64097.315680452615
143.71430533563912        64282.71328928191
144.12854420872233        64468.65089024478
144.5439770745928         64655.13008847042
144.96060737478808        64842.15249440987
145.37843856076623        65029.71972346604
145.79747409393298        65217.833395997266
146.21771744567184        65406.49513772643
146.63917209737153        65595.7065791901
147.06184154045604        65785.46935644043
147.4857292764125         65975.78511037538
147.91083881682073        66166.6554873275
148.33717368338253        66358.08213854666
148.76473740795015        66550.06672083559
149.19353353255647        66742.61089597823
149.6235656094433         66935.71633109948
150.05483720109186        67129.38469868399
150.48735188025145        67323.61767636542
150.9211132299693         67518.41694709807
151.35612484362088        67713.78419949487
151.79239032493837        67909.72112705106
152.22991328804204        68106.22942887971
152.66869735746866        68303.3108095412
153.10874616820303        68500.9669788969
153.55006336570662        68699.19965237494
153.9926526059492         68898.0105506925
154.4365175554379         69097.4014000488
154.88166189124811        69297.37393245667
155.32808930105446        69497.9298849515
155.7758034831602         69699.07100051554
156.22480814652906        69900.79902745452
156.67510701081486        70103.11571979464
157.12670380639344        70306.02283706603
157.57960227439236        70509.52214441696
158.03380616672317        70713.61541265828
158.48931924611142        70918.30441839002
158.94614528612814        71123.59094370711
159.4042880712218         71329.4767765031
159.86375139674837        71535.96371037624
160.32453906900417        71743.0535446716
160.786654905256          71950.74808452628
161.25010273377416        72159.04914079452
161.71488639386294        72367.95853039417
162.18100973589299        72577.47807561702
162.64847662133363        72787.60960505206
163.1172909227838         72998.3549529299
163.58745652400532        73209.71595956007
164.05897731995387        73421.69447094455
164.5318572168125         73634.29233919167
165.00610013202268        73847.51142247654
165.48170999431815        74061.35358463462
165.95869074375614        74275.82069579404
166.4370463317507         74490.91463207504
166.91678072110582        74706.63727556923
167.3978978860471         74922.99051462558
167.88040181225605        75139.97624348517
168.36429649690177        75357.59636274049
168.84958594867533        75575.85277883244
169.33627418782172        75794.74740469917
169.82436524617444        76014.28215928451
170.31386316718778        76234.4589679377
170.8047720059708         76455.27976210983
171.29709582932136        76676.74647950122
171.79083871575875        76898.86106420186
172.2860047555588         77121.62546661618
172.78259805078628        77345.04164359851
173.2806227153304         77569.11155797479
173.78008287493762        77793.8371794244
174.2809826672464         78019.22048386633
174.78332624182192        78245.26345370496
175.28711776018926        78471.96807770035
175.7923613958693         78699.33635129819
176.2990613344119         78927.3702762517
176.80722177343196        79156.07186116997
177.31684692264275        79385.44312091969
177.82794100389228        79615.48607701845
178.34050825119692        79846.20275783168
178.85455291077713        80077.59519817625
179.37007924109307        80309.66543959887
179.88709151287873        80542.41553038084
180.40559400917866        80775.84752553933
180.92559102538203        81009.96348679387
181.44708686925964        81244.76548267697
181.97008586099827        81480.25558851619
182.49459233323773        81716.43588663195
183.02061063110568        81953.30846596471
183.54814511225402        82190.87542235159
184.07720014689562        82429.13885901407
184.60778011783924        82668.10088548381
185.13988942052723        82907.76361875518
185.67353246307053        83148.12918240826
186.20871366628674        83389.19970747826
186.7454374637353         83630.97733180292
187.28370830175484        83873.46420042745
187.8235306395006         84116.66246545226
188.36490894898           84360.57428607398
188.90784771509132        84605.20182880762
189.45235143565915        84850.547267329
189.9984246214733         85096.61278241029
190.54607179632484        85343.40056239744
191.09529749704404        85590.91280251149
191.64610627353872        85839.1517057083
192.1985026888304         86088.11948204484
192.75249131909365        86337.8183489089
193.30807675369272        86588.2505314208
193.86526359522077        86839.4182618836
194.42405645953662        87091.32378017176
194.98445997580455        87343.96933345126
195.54647878653103        87597.35717689866
196.11011754760474        87851.48957279437
196.6753809283339         88106.36879117989
197.24227361148533        88361.9971097854
197.81080029332404        88618.37681401761
198.38096568365052        88875.51019691548
198.95277450584163        89133.39955930118
199.52623149688787        89392.04720944219
200.10134140743443        89651.45546397976
200.678109001819          89911.6266468646
201.25653905811188        90172.56309027823
201.83663636815618        90434.26713391714
202.41840573760612        90696.74112571601
203.00185198596844        90959.9874215261
203.5869799466407         91224.00838485207
204.17379446695296        91488.80638778894
204.76230040820647        91754.38380974864
205.3525026457146         92020.7430391569
205.94440606884388        92287.88647184374
206.53801558105292        92555.81651202009
207.13333609993484        92824.53557199945
207.7303725572563         93094.04607260924
208.32912989899995        93364.35044272804
208.92961308540387        93635.45111948211
209.53182709100417        93907.35054840312
210.13577690467469        94180.05118344788
210.74146752966985        94453.55548681258
211.34890398366477        94727.86592936475
211.95809129879737        95002.9849904004
212.56903452171076        95278.91515760172
213.1817387135935         95555.65892714138
213.79620895022325        95833.21880403599
214.41245032200715        96111.5973018263
215.03046793402564        96390.7969426512
215.65026690607334        96670.82025730553
216.271852372702          96951.66978557543
216.89522948326376        97233.3480757115
217.52040340195222        97515.85768495723
218.14737930784707        97799.201179304
218.77616239495518        98083.38113387527
219.40675787225535        98368.40013230617
220.03917096373996        98654.2607677261
220.673406908459          98940.96564179639
221.30947096056389        99228.51736545513
221.94736838934972        99516.91855873396
222.58710447930054        99806.17185081755
223.2286845301314         100096.27987992651
223.872113856834          100387.24529343795
224.51739778971898        100679.07074832116
225.1645416744618         100971.75891049734
225.81355087214533        101265.31245538917
226.46443075930597        101559.73406780753
227.11718672797664        101855.02644175541
227.77182418573219        102151.19228094158
228.42834855573477        102448.23429858447
229.08676527677724        102746.15521729401
229.74707980333002        103044.95776913197
230.40929760558447        103344.6446962596
231.07342416950002        103645.2187501352
231.73946499684797        103946.68269214066
232.40742560525788        104249.03929305308
233.07731152826386        104552.29133389035
233.7491283153488         104856.44160528638
234.42288153199226        105161.49290782602
235.0985767597147         105467.448052024
235.77621959612546        105774.3098584036
236.45581565496772        106082.08115744233
237.13737056616552        106390.76478989753
237.8208899758712         106700.36360632906
238.50637954651052        107010.8804676451
239.19384495683136        107322.31824510299
239.88329190194898        107634.6798198308
240.57472609339513        107947.96808374222
241.26815325916328        108262.18593871988
241.96357914375818        108577.33629727595
242.66100950824142        108893.42208226594
243.36045013028115        109210.44622709385
244.06190680419814        109528.4116759799
244.76538534101462        109847.32138293526
245.4708915685031         110167.17831346946
246.17843133123299        110487.98544330108
246.8880104906209         110809.74575947507
247.59963492497727        111132.46225891278
248.31331052955704        111456.13795023109
249.02904321660677        111780.77585242181
249.74683891541434        112106.37899573163
250.4667035723588         112432.95042132727
251.18864315095797        112760.49318131249
251.91266363191968        113089.01033915342
252.63877101318954        113418.50496907988
253.36697131000244        113748.98015703024
254.09727055493065        114080.43899967395
254.82967479793464        114412.8846054174
255.56419010641395        114746.32009400423
256.30082256525554        115080.74859635944
257.03957827688646        115416.1732550369
257.78046336132206        115752.5972242697
258.52348395621914        116090.02366962518
259.26864621692425        116428.45576850064
260.0159563165272         116767.89670988417
260.7654204459099         117108.34969457478
261.5170448137997         117449.81793530373
262.27083564681914        117792.3046564057
263.02679918953817        118135.8130946536
263.7849417045267         118480.34649821097
264.54526947240487        118825.90812756807
265.30778879189677        119172.50125546573
266.0725059798809         119520.12916660972
266.83942737144423        119868.79515780168
267.6085593199333         120218.50253866777
268.3799081970073         120569.25463088942
269.1534803926917         120921.05476817851
269.9292823154293         121273.90629718197
270.7073203921358         121627.81257709938
271.4876010682502         121982.7769795341
272.27013080779125        122338.8028888038
273.0549160934083         122695.89370187829
273.8419634264361         123054.05282865535
274.6312793269498         123413.28369186191
275.4228703338166         123773.58972687507
276.21674300475223        124134.9743824483
277.01290391637326        124497.44112031035
277.8113596642536         124860.993414889
278.61211686297696        125225.63475424776
279.41518214619384        125591.368639479
280.22056216667454        125958.1985852139
281.028263596366          126326.12811892322
281.8382931264455         126695.16078208947
282.65065746737685        127065.30012957416
283.4653633489668         127436.5497296015
284.28241752041873        127808.91316420733
285.10182675039096        128182.39402909628
285.9235978270505         128556.9959339692
286.74773755813163        128932.72250200038
287.57425277099003        129309.57737058857
288.40315031266056        129687.5641909354
289.23443704991473        130066.68662880627
290.0681198693153         130446.94836332573
290.90420567727614        130828.35308855599
291.7427014001166         131210.90451231008
292.5836139841216         131594.60635705895
293.42695039559703        131979.4623598612
294.2727176209282         132365.47627209823
295.1209226666387         132752.65185960062
295.9715725594465         133140.99290298784
296.8246743463243         133530.50319794432
297.68023509455566        133921.18655460462
298.538261891796          134313.04679793818
299.39876184612876        134706.08776833033
300.26174208612673        135100.3133208643
301.12720976090884        135495.7273257651
301.9951720402016         135892.33366875027
302.8656361143965         136290.1362505802
303.73860919461043        136689.13898763145
304.6140985127464         137089.34581133825
305.49211132155125        137490.76066935423
306.37265489467813        137893.38752414833
307.25573652674456        138297.23035459168
308.1413635333949         138702.2931549726
309.0295432513592         139108.57993559976
309.9202830385147         139516.09472289003
310.8135902739477         139924.84155902482
311.70947235801253        140334.8245023454
312.6079367123956         140746.04762769415
313.50899078017386        141158.5150261481
314.4126420258796         141572.2308049033
315.3188979355595         141987.19908821696
316.22776601683796        142403.42401602797
317.1392537989798         142820.90974616
318.05336883295206        143239.66045219055
318.9701186914858         143659.68032479592
319.88951096913974        144080.9735721774
320.81155328236366        144503.54441884113
321.7362532695601         144927.39710681917
322.66361859114824        145352.53589545618
323.5936569296281         145778.9650607684
324.5263759896437         146206.6888972788
325.46178349804603        146635.71171616085
326.3998872039577         147066.03784673603
327.3406948788383         147497.6716354212
328.28421431654635        147930.61744728824
329.23045333340656        148364.87966438712
330.1794197682719         148800.46268770905
331.1311214825911         149237.37093602784
332.0855663604718         149675.60884598448
333.0427623087463         150115.18087281138
334.0027172570387         150556.09149022616
334.9654391578276         150998.3451903679
335.9309359865153         151441.9464843703
336.8992157414906         151886.89990159147
337.87028644419826        152333.20999048257
338.84415613920277        152780.88131857305
339.82083289425594        153229.9184722212
340.8003248003648         153680.3260571168
341.7826399718576         154132.1086981032
342.76778654645045        154585.27103956425
343.7557726853155         155039.81774526928
344.74660657314945        155495.75349873482
345.7402964182394         155953.08300332006
346.73685045253166        156411.81098199447
347.7362769317011         156871.942177477
348.7385841352184         157333.48135329766
349.74378036641804        157796.43329248126
350.75187395256796        158260.80279862438
351.76287324493944        158726.59469590028
352.7767866188738         159193.81382892618
353.7936224738549         159662.46506270085
354.8133892335753         160132.55328344225
355.8360953460096         160604.08339816792
356.86174928348134        161077.0603350368
357.8903595427346         161551.48904302935
358.92193464500536        162027.37449272635
359.9564831360895         162504.721676092
360.9940135864167         162983.53560639024
362.03453459111824        163463.82131875228
363.0780547701014         163945.58387041406
364.1245827681181         164428.82833990912
365.1741272548377         164913.55982823556
366.2266969249197         165399.7834587126
367.2823004980846         165887.50437645437
368.34094671918604        166376.72774982764
369.4026443582834         166867.45876883296
370.46740221071576        167359.70264695995
371.53522909717276        167853.46462051786
372.6061338637685         168348.74994847082
373.6801253821156         168845.56391330773
374.7572125493981         169343.91182018994
375.8374042884443         169843.79899860098
376.92070954780155        170345.23080092334
378.0071373018112         170848.21260360285
379.0966965506808         171352.74980679498
380.1893963205613         171858.8478350091
381.2852456636187         172366.5121360332
382.38425365811264        172875.74818327933
383.4864294084684         173386.56147338045
384.5917820453535         173898.95752841022
385.70032072575503        174412.94189462755
386.81205463305207        174928.52014388752
387.92699297709544        175445.69787271915
389.04514499428046        175964.48070266127
390.166519947627          176484.8742810588
391.2911271268532         177006.88428064252
392.4189758484536         177530.51640003265
393.55007545577723        178055.77636327152
394.68443531910424        178582.66992103416
395.82206483572264        179111.20284978498
396.96297343000685        179641.38095221465
398.1071705534973         180173.21005818056
399.25466568497603        180706.69602374884
400.4054683305464         181241.84473170646
401.5595880237129         181778.66209236675
402.71703432545905        182317.1540432939
403.87781682432615        182857.32654868613
405.0419451364931         183399.1856011423
406.20942890585746        183942.73722051628
407.3802778041126         184487.98745502744
408.55450153083103        185034.9423805956
409.73210981354134        185583.6081012956
410.9131124078122         186133.99075025186
412.0975190973304         186686.09648867304
413.28533969398285        187239.93150707879
414.4765840379393         187795.5020245256
415.67126199773094        188352.81428945667
416.8693834703355         188911.87458021712
418.0709583812558         189472.68920402406
419.2759966846055         190035.26449829515
420.4845083631883         190599.6068302752
421.6965034285823         191165.72259733806
422.91199192122343        191733.61822760556
424.1309839104881         192303.3001793767
425.35348949477566        192874.77494216393
426.57951880159254        193448.04903558738
427.80908198763814        194023.12901165272
429.0421892388857         194600.02145292368
430.2788507706685         195178.73297361983
431.519076827765          195759.27022057545
432.76287768448304        196341.63987188876
434.010263644744          196925.84863776158
435.26124504216904        197511.90326170134
436.5158322401661         198099.81051923844
437.7740356320125         198689.5772185714
439.03586564094473        199281.21020219848
440.30133272024125        199874.7163444608
441.57044735331255        200470.1025546311
442.8432200537849         201067.3757749315
444.1196613655889         201666.54298184134
445.39978186304796        202267.61118638844
446.683592150963          202870.5874337343
447.97110286470377        203475.47880399183
449.26232467029325        204082.2924118067
450.5572682644998         204691.0354078157
451.8559443749226         205301.71497766417
453.1583637600818         205914.33834265737
454.4645372095085         206528.91276038875
455.7744755438333         207145.44552402667
457.0881896148752         207763.94396377626
458.405690305732          208384.4154462859
459.7269885308723         209006.86737518743
461.0520952362227         209631.30719172736
462.38102139926036        210257.74237396853
463.71377802910433        210886.18043794905
465.05037616660627        211516.62893807798
466.3908268844408         212149.09546626307
467.73514128719813        212783.58765377075
469.0833305114774         213420.11317031033
470.435405725976          214058.67972481012
471.79137813158536        214699.29506538314
473.15125896148027        215341.96697994508
474.5150594812158         215986.70329561218
475.8827909888171         216633.51188130173
477.2544648148744         217282.40064469285
478.6300923226385         217933.37753546654
480.00968490811147        218586.4505440033
481.39325400014485        219241.62770155392
482.7808110605305         219898.91708190885
484.1723675840994         220558.32680026093
485.5679350988136         221219.86501441122
486.9675251658631         221883.53992379288
488.37114937976247        222549.3597720113
489.77881936844614        223217.33284539662
491.1905467933636         223887.4674735171
492.6063433495771         224559.77202993972
494.0262207658599         225234.25493244227
495.45019080479057        225910.92464332905
496.87826526285176        226589.78966918518
498.3104559705293         227270.8585626608
499.7467747924086         227954.13992103442
501.18723362727246        228639.64238736534
502.63184440820055        229327.37465165355
504.0806191026696         230017.34544956023
505.53356971264895        230709.5635631586
506.99070827470445        231404.0378235146
508.4520468600936         232100.77710713272
509.9175975748702         232799.79033995038
511.3873725599802         233501.08649504682
512.8613839913648         234204.67459420278
514.3396440800623         234910.56370863784
515.8221650723056         235618.76295900292
517.3089592496281         236329.2815145879
518.8000389289609         237042.12859564708
520.2954164627397         237757.31347277094
521.7951042390025         238474.84546741593
523.2991146814946         239194.7339513589
524.8074602497722         239916.98834870165
526.3201534393047         240641.61813590108
527.8372067815769         241368.63284100333
529.3586328441943         242098.04204485327
530.8844442309885         242829.8553824379
532.4146535821184         243564.08254073633
533.9492735741767         244300.73326216397
535.4883169202959         245039.8173426701
537.0317963702527         245781.34463365795
538.5797247105721         246525.32504080626
540.1321147646348         247271.7685268336
541.688979392785          248020.68510917548
543.250331492433          248772.08486255928
544.8161839981667         249525.97791855282
546.386549881854          250282.37446606596
547.9614421527547         251041.28475234285
549.5408738576248         251802.7190819445
551.1248580808259         252566.6878190515
552.7134079444351         253333.2013866847
554.3065366083505         254102.27026770276
555.9042572704037         254873.90500544643
557.5065831664657         255648.11620291215
559.1135275705602         256424.91452499066
560.72510379497           257204.31069877394
562.341325190349          257986.31551163387
563.962205145834          258770.9398152173
565.5877570891539         259558.19452337484
567.2179944867406         260348.09061358756
568.8529308438414         261140.6391281011
570.4925797046321         261935.8511729838
572.1369546523267         262733.73791967443
573.7860693092911         263534.31060521863
575.4399373371566         264337.58053296834
577.0985724369333         265143.55907292396
578.7619883491209         265952.2576622854
580.4301988538248         266763.68780605565
582.1032177708715         267577.8610771524
583.7810589599193         268394.7891186877
585.4637363205773         269214.4836413259
587.1512637925164         270036.95642739785
588.843655355589          270862.219328909
590.5409250299413         271690.2842688365
592.2430868761305         272521.1632429513
593.9501549952438         273354.8683185185
595.6621435290103         274191.4116357576
597.3790666599235         275030.80540902575
599.1009386113537         275873.0619256196
600.8277736476707         276718.19354897423
602.5595860743581         277566.2127169414
604.2963902381329         278417.1319438137
606.038200527066          279270.9638203923
607.7850313707005         280127.7210142877
609.5368972401693         280987.4162720643
611.2938126483169         281850.0624175507
613.0557921498208         282715.67235479446
614.8228503413089         283584.2590673477
616.5950018614822         284455.83561921876
618.372261391237          285330.41515552544
620.1546436537853         286208.0109040062
621.9421634147765         287088.63617390854
623.7348354824192         287972.3043586454
625.5326747076073         288859.0289358843
627.3356959840379         289748.823466552
629.14391424834           290641.7015985278
630.957344480193          291537.6770651772
632.7760017024558         292436.76368674816
634.5999009812872         293338.9753716691
636.429057426272          294244.32611608895
638.263486190549          295152.83000546094
640.1032024709307         296064.5012159126
641.948221508036          296979.35401281307
643.7985585864097         297897.4027548196
645.6542290346556         298818.6618912537
647.5152482255579         299743.14596523414
649.3816315762114         300670.8696144993
651.2533945481495         301601.84757002955
653.1305526474723         302536.0946592802
655.0131214249725         303473.62580572366
656.9011164762662         304414.4560307697
658.794553441924          305358.6004524573
660.6934480075964         306306.07428926777
662.5978159041462         307256.8928582111
664.5076729077792         308211.0715782
666.4230348401749         309168.62596898933
668.3439175686149         310129.57165231655
670.2703370061167         311093.9243547707
672.2023091115669         312061.69990563864
674.1398498898492         313032.914240541
676.0829753919819         314007.58340085496
678.0317017152456         314985.72353491065
679.9860450033224         315967.35089937237
681.9460214464241         316952.4818600185
683.9116472814293         317941.13289204956