% Model:              AC -220722 - Parallel Section.mph
% Version:            COMSOL 6.0.0.405
% Date:               Jul 22 2022, 22:53
% Dimension:          1
% Nodes:              961
% Expressions:        1
% Description:        Global
% freq (Hz)               2DX, 
200                       3110808.426717742
205                       3215281.4629360577
210                       3322289.431903333
215                       3431980.5016976735
220                       3544513.039336612
225                       3660056.5581770027
230                       3778792.770805997
235                       3900916.761282444
240                       4026638.2930417755
245                       4156183.2710755435
250                       4289795.380511635
255                       4427737.926586599
260                       4570295.905898555
265                       4717778.34371256
270                       4870520.9379076455
275                       5028889.057852781
280                       5193281.15523294
285                       5364132.654189682
290                       5541920.401796827
295                       5727167.775006852
300                       5920450.560258247
305                       6122403.745695293
310                       6333729.395775895
315                       6555205.814938118
320                       6787698.253908648
325                       7032171.469822892
330                       7289704.5267967
335                       7561508.31651471
340                       7848946.401657788
345                       8153559.940744964
350                       8477097.65842653
355                       8821552.095048916
360                       9189203.72538375
365                       9582675.014732702
370                       1.000499712593157E7
375                       1.045969287121052E7
380                       1.0950880720778503E7
385                       1.1483406377656717E7
390                       1.206301083963717E7
395                       1.2696547322127944E7
400                       1.339226446112569E7
405                       1.41601806907819E7
410                       1.5012585980828993E7
415                       1.5964724522889214E7
420                       1.7035739367633574E7
425                       1.8250004287668984E7
430                       1.9639041636978377E7
435                       2.1244350805951443E7
440                       2.3121695025363393E7
445                       2.5347806241353914E7
450                       2.8031264471199498E7
455                       3.1330934955922265E7
460                       3.54888905611207E7
465                       4.089309709104141E7
470                       4.820682139165554E7
475                       5.86654882303667E7
480                       7.486327442358246E7
485                       1.0332949666076231E8
490                       1.6654847286458862E8
495                       4.282083208557918E8
500                       7.513923265549206E8
505                       2.0015751485314202E8
510                       1.154455126373957E8
515                       8.10980362384808E7
520                       6.248494721285952E7
525                       5.080470966211526E7
530                       4.278867453799613E7
535                       3.6943891004207164E7
540                       3.249147553340861E7
545                       2.8985290660965934E7
550                       2.615140078866909E7
555                       2.3812299563142836E7
560                       2.1847910953729976E7
565                       2.0174100794335883E7
570                       1.8730164872494265E7
575                       1.747120350555961E7
580                       1.6363292204054415E7
585                       1.5380321164039906E7
590                       1.4501867432435032E7
595                       1.371172642034612E7
600                       1.2996876106941374E7
605                       1.2346732155460084E7
610                       1.1752602880259845E7
615                       1.1207284186771192E7
620                       1.0704754266886342E7
625                       1.0239940518109377E7
630                       9808539.509253807
635                       9406876.422867838
640                       9031794.230910277
645                       8680565.515704919
650                       8350821.715521649
655                       8040495.905472511
660                       7747776.186370737
665                       7471067.45558852
670                       7208959.852596159
675                       6960202.557873154
680                       6723681.914571153
685                       6498403.06328621
690                       6283474.448513123
695                       6078094.686440981
700                       5881541.384362719
705                       5693161.581476494
710                       5512363.543071438
715                       5338609.689729595
720                       5171410.482296847
725                       5010319.115195867
730                       4854926.896016622
735                       4704859.209879047
740                       4559771.98396947
745                       4419348.581264763
750                       4283297.063760996
755                       4151347.7748677013
760                       4023251.1982198805
765                       3898776.056642803
770                       3777707.6203650753
775                       3659846.1978844106
780                       3545005.7869039224
785                       3433012.865672269
790                       3323705.3079015035
795                       3216931.406658731
800                       3112548.994529755
805                       3010424.64906331
810                       2910432.9738923223
815                       2812455.9470851445
820                       2716382.3294308633
825                       2622107.1261499687
830                       2529531.0963870212
835                       2438560.3054430145
840                       2349105.7153247064
845                       2261082.8097277055
850                       2174411.2499079057
855                       2089014.558416186
860                       2004819.8278984567
865                       1921757.4525337503
870                       1839760.8798898228
875                       1758766.3812355811
880                       1678712.8385665736
885                       1599541.5467045512
890                       1521196.0291001834
895                       1443621.8659914758
900                       1366766.5337857425
905                       1290579.254579716
910                       1215010.854866283
915                       1140013.6325428165
920                       1065541.231413623
925                       991548.5224575597
930                       917991.4911701471
935                       844827.1303773965
940                       772013.3379098579
945                       699508.8186327195
950                       627272.9903108412
955                       555265.8928367738
960                       483448.10039369634
965                       411780.63611575146
970                       340224.88886238914
975                       268742.53170830396
980                       197295.44179442685
985                       125845.62116575813
990                       54355.11826076369
995                       17214.050304011053
1000                      88899.97799637249
1005                      160740.94701137702
1010                      232775.50765439964
1015                      305042.5588010372
1020                      377581.42980354594
1025                      450431.9642054416
1030                      523634.60564508045
1035                      597230.4863601925
1040                      671261.5186910272
1045                      745770.4900438397
1050                      820801.1617682646
1055                      896398.3724570953
1060                      972608.1461953609
1065                      1049477.806342753
1070                      1127056.0954595634
1075                      1205393.3020547123
1080                      1284541.394880907
1085                      1364554.1655800994
1090                      1445487.3805338664
1095                      1527398.9428911116
1100                      1610349.0657964833
1105                      1694400.4579895968
1110                      1779618.5230358283
1115                      1866071.573596017
1120                      1953831.0622884007
1125                      2042971.8308752102
1130                      2133572.3796908995
1135                      2225715.1594569082
1140                      2319486.887868085
1145                      2414978.8936323943
1150                      2512287.490959354
1155                      2611514.387850085
1160                      2712767.1319998405
1165                      2816159.5985554433
1170                      2921812.5245659617
1175                      3029854.0955723985
1180                      3140420.5905199894
1185                      3253657.092040037
1190                      3369718.270083862
1195                      3488769.2480677064
1200                      3610986.561972024
1205                      3736559.224391067
1210                      3865689.907303954
1215                      3998596.2594701326
1220                      4135512.376764605
1225                      4276690.446742499
1230                      4422402.5921067055
1235                      4572942.941858389
1240                      4728629.963745262
1245                      4889809.097407415
1250                      5056855.734604901
1255                      5230178.60112932
1260                      5410223.605264273
1265                      5597478.229632646
1270                      5792476.558317974
1275                      5995805.049196263
1280                      6208109.183735558
1285                      6430101.154062298
1290                      6662568.781202868
1295                      6906385.900963246
1300                      7162524.507389517
1305                      7432069.010824487
1310                      7716233.053320281
1315                      8016379.433033524
1320                      8334043.829717648
1325                      8670963.205234332
1330                      9029109.990449006
1335                      9410733.482443161
1340                      9818410.290947864
1345                      1.025510622913555E7
1350                      1.072425279724667E7
1355                      1.122984243719595E7
1360                      1.1776548162510933E7
1365                      1.236987516519326E7
1370                      1.3016354836282345E7
1375                      1.3723795720934022E7
1380                      1.4501611902335966E7
1385                      1.5361258196555078E7
1390                      1.6316815013736645E7
1395                      1.738578658720936E7
1400                      1.8590209262996893E7
1405                      1.995822008945234E7
1410                      2.152632532839466E7
1415                      2.334276252949048E7
1420                      2.5472624923668347E7
1425                      2.8005929027914807E7
1430                      3.10708064209673E7
1435                      3.485606630678166E7
1440                      3.965193773913325E7
1445                      4.592873199158571E7
1450                      5.4502160883491434E7
1455                      6.6921730197967924E7
1460                      8.653528008868495E7
1465                      1.2216426150654142E8
1470                      2.0702354096816263E8
1475                      6.718659587114906E8
1480                      5.429470563334922E8
1485                      1.9373237969155273E8
1490                      1.180216564572831E8
1495                      8.491050542812352E7
1500                      6.633268722019984E7
1505                      5.443723946161911E7
1510                      4.6165139843916334E7
1515                      4.007729398435907E7
1520                      3.540759352222947E7
1525                      3.1710695407011393E7
1530                      2.8710050407442413E7
1535                      2.622485413326089E7
1540                      2.413191221584801E7
1545                      2.234438743066288E7
1550                      2.0799308802437287E7
1555                      1.944989927189199E7
1560                      1.82606842892912E7
1565                      1.7204272352685317E7
1570                      1.625917668555159E7
1575                      1.5408305334673034E7
1580                      1.4637892039820328E7
1585                      1.3936724724912608E7
1590                      1.3295579236449445E7
1595                      1.270679733058792E7
1600                      1.2163967784764316E7
1605                      1.1661682384289835E7
1610                      1.1195347045484232E7
1615                      1.0761034067829896E7
1620                      1.0355365432076966E7
1625                      9975419.79092006
1630                      9618657.72401695
1635                      9282861.205440737
1640                      8966084.227497373
1645                      8666612.25340469
1650                      8382928.710216548
1655                      8113687.135792115
1660                      7857687.897113202
1665                      7613858.627814931
1670                      7381237.709558703
1675                      7158960.258553492
1680                      6946246.184889031
1685                      6742389.975309715
1690                      6546751.916020357
1695                      6358750.523994128
1700                      6177855.996892107
1705                      6003584.525062453
1710                      5835493.335919502
1715                      5673176.362883795
1720                      5516260.44882472
1725                      5364402.008435954
1730                      5217284.085981856
1735                      5074613.754658527
1740                      4936119.812097397
1745                      4801550.7331790235
1750                      4670672.847166971
1755                      4543268.710812157
1760                      4419135.653126752
1765                      4298084.470939657
1770                      4179938.2571101566
1775                      4064531.34576836
1780                      3951708.3610225287
1785                      3841323.357288322
1790                      3733239.0409276006
1795                      3627326.064185353
1800                      3523462.383524407
1805                      3421532.675390734
1810                      3321427.8033324354
1815                      3223044.3310364597
1820                      3126284.0765458313
1825                      3031053.703407478
1830                      2937264.3450132553
1835                      2844831.2587852105
1840                      2753673.5072310893
1845                      2663713.6632054555
1850                      2574877.53700132
1855                      2487093.9231275283
1860                      2400294.3648513635
1865                      2314412.934778461
1870                      2229386.029888775
1875                      2145152.179638346
1880                      2061651.8657993174
1885                      1978827.3529074332
1890                      1896622.5282116283
1895                      1814982.7501618827
1900                      1733854.704522332
1905                      1653186.2672809914
1910                      1572926.373581308
1915                      1493024.8919525323
1920                      1413432.5031642772
1925                      1334100.5830775588
1930                      1254981.0888794386
1935                      1176026.448142444
1940                      1097189.4501461275
1945                      1018423.1389447994
1950                      939680.7076552319
1955                      860915.3934621186
1960                      782080.3728461945
1965                      703128.6565278212
1970                      624012.9836385965
1975                      544685.7145994145
1980                      465098.7222041905
1985                      385203.28036552767
1990                      304949.9499776391
1995                      224288.46131967075
2000                      143167.59239740513
2005                      61535.0425797745
2010                      20662.699138911878
2015                      103480.49198580044
2020                      186974.6881391012
2025                      271203.2851814863
2030                      356226.0871886624
2035                      442104.87544561276
2040                      528903.5898652025
2045                      616688.5222963501
2050                      705528.5230233319
2055                      795495.2218791477
2060                      886663.2655628308
2065                      979110.5728980533
2070                      1072918.609985997
2075                      1168172.687396395
2080                      1264962.281812965
2085                      1363381.3848109648
2090                      1463528.8817757396
2095                      1565508.9643358698
2100                      1669431.5800936504
2105                      1775412.923929908
2110                      1883575.975689025
2115                      1994051.089700791
2120                      2106976.6423069728
2125                      2222499.7444076715
2130                      2340777.0270105246
2135                      2461975.508889562
2140                      2586273.5567720025
2145                      2713861.9499848625
2150                      2844945.063294001
2155                      2979742.1837248257
2160                      3118488.979633255
2165                      3261439.1431610603
2170                      3408866.230622656
2175                      3561065.7294304054
2180                      3718357.384958026
2185                      3881087.826473889
2190                      4049633.538192585
2195                      4224404.229685479
2200                      4405846.66994342
2205                      4594449.061397267
2210                      4790746.04493938
2215                      4995324.4449528465
2220                      5208829.885377164
2225                      5431974.435068547
2230                      5665545.474448681
2235                      5910416.0173901245
2240                      6167556.775099986
2245                      6438050.314995099
2250                      6723107.751932825
2255                      7024088.516554051
2260                      7342523.883826008
2265                      7680145.123625875
2270                      8038917.368792223
2275                      8421080.60309606
2280                      8829199.578885162
2285                      9266225.019966643
2290                      9735569.20283496
2295                      1.024120001812466E7
2300                      1.0787759008043543E7
2305                      1.1380710826311707E7
2310                      1.2026534333106482E7
2315                      1.2732969515354732E7
2320                      1.3509340233041456E7
2325                      1.43669814232183E7
2330                      1.5319812453769213E7
2335                      1.638511848637595E7
2340                      1.758463355710927E7
2345                      1.894607064805646E7
2350                      2.0505329868411172E7
2355                      2.2309763327381093E7
2360                      2.442313777037834E7
2365                      2.693342271131983E7
2370                      2.9965477655541904E7
2375                      3.370265488144308E7
2380                      3.842559673793222E7
2385                      4.458663628102535E7
2390                      5.296480157920068E7
2395                      6.5025750205319844E7
2400                      8.38920627469171E7
2405                      1.1760714232430527E8
2410                      1.9513001643382657E8
2415                      5.606257230639533E8
2420                      6.56899397889962E8
2425                      2.0854198038855317E8
2430                      1.244275453517084E8
2435                      8.889753021071666E7
2440                      6.928461225872855E7
2445                      5.6845933072857544E7
2450                      4.8250706769673206E7
2455                      4.195367296526739E7
2460                      3.7140039051898345E7
2465                      3.3339468991171304E7
2470                      3.0261456554337185E7
2475                      2.771687747396679E7
2480                      2.557731216015443E7
2485                      2.3752498587288685E7
2490                      2.217713970052274E7
2495                      2.0802830268297732E7
2500                      1.9592926246454682E7
2505                      1.851917707080928E7
2510                      1.755945244225809E7
2515                      1.6696169936772462E7
2520                      1.5915183687162928E7
2525                      1.520498375240391E7
2530                      1.4556109351752467E7
2535                      1.3960712155114003E7
2540                      1.3412226689508215E7
2545                      1.2905118413100336E7
2550                      1.2434688910969151E7
2555                      1.1996923652410332E7
2560                      1.158837184198994E7
2565                      1.1206050738850737E7
2570                      1.084736882174875E7
2575                      1.051006360657611E7
2580                      1.0192150956808949E7
2585                      9891883.48264515
2590                      9607716.182563955
2595                      9338277.897824205
2600                      9082347.463744603
2605                      8838833.680247653
2610                      8606758.406492395
2615                      8385242.225363655
2620                      8173492.233303719
2625                      7970791.596516814
2630                      7776490.582499448
2635                      7589998.829048692
2640                      7410778.656083804
2645                      7238339.259568998
2650                      7072231.654681033
2655                      6912044.257648366
2660                      6757399.0140253045
2665                      6607947.995975141
2670                      6463370.40355832
2675                      6323369.914967923
2680                      6187672.339141293
2685                      6056023.531166834
2690                      5928187.536588676
2695                      5803944.935769509
2700                      5683091.363420173
2705                      5565436.181926292
2710                      5450801.290031279
2715                      5339020.050881028
2720                      5229936.325574239
2725                      5123403.600159959
2730                      5019284.195543285
2735                      4917448.551124622
2740                      4817774.574095184
2745                      4720147.047320431
2750                      4624457.0895619495
2755                      4530601.6625835
2760                      4438483.120236635
2765                      4348008.795244303
2770                      4259090.619880191
2775                      4171644.7771125794
2780                      4085591.3792122193
2785                      4000854.171110681
2790                      3917360.2560956455
2795                      3835039.8416666677
2800                      3753826.0036093104
2805                      3673654.466524445
2810                      3594463.3992462414
2815                      3516193.2236870425
2820                      3438786.435838179
2825                      3362187.437723467
2830                      3286342.3792410903
2835                      3211199.008891665
2840                      3136706.5325105535
2845                      3062815.4791496065
2850                      2989477.5733458265
2855                      2916645.613066387
2860                      2844273.3526529926
2865                      2772315.3901496297
2870                      2700727.0584170013
2875                      2629464.3194765113
2880                      2558483.661556584
2885                      2487741.9983161646
2890                      2417196.569765444
2895                      2346804.844388702
2900                      2276524.421994587
2905                      2206312.93683542
2910                      2136127.960509205
2915                      2065926.9041837405
2920                      1995666.9196518736
2925                      1925304.79873277
2930                      1854796.8705110226
2935                      1784098.895876781
2940                      1713165.958821203
2945                      1641952.3539036943
2950                      1570411.4692664426
2955                      1498495.664539272
2960                      1426156.1429241674
2965                      1353342.816696124
2970                      1280004.1652914712
2975                      1206087.0850786094
2980                      1131536.7298345813
2985                      1056296.3408414177
2990                      980307.0654219047
2995                      903507.7626012781
3000                      825834.7944529979
3005                      747221.8015215419
3010                      667599.4605352713
3015                      586895.2224245485
3020                      505033.0284201104
3025                      421933.00174163654
3030                      337511.1120820097
3035                      251678.8097479153
3040                      164342.62590331736
3045                      75403.73492266615
3050                      15242.525695468723
3055                      107707.18298873113
3060                      202108.2096375342
3065                      298571.16517949733
3070                      397229.9049813971
3075                      498227.3657001982
3080                      601716.4372849974
3085                      707860.9330800439
3090                      816836.6713831105
3095                      928832.6839087695
3100                      1044052.569101457
3105                      1162716.0111747205
3110                      1285060.489266909
3115                      1411343.2052671204
3120                      1541843.2638723503
3125                      1676864.1444363084
3130                      1816736.5114166767
3135                      1961821.4189911836
3140                      2112513.9760902086
3145                      2269247.551090681
3150                      2432498.6114419894
3155                      2602792.3131046835
3160                      2780708.979185661
3165                      2966891.6374369306
3170                      3162054.8244209047
3175                      3366994.9119753083
3180                      3582602.2724231766
3185                      3809875.67634673
3190                      4049939.4162491844
3195                      4304063.777982675
3200                      4573689.649504039
3205                      4860458.276654551
3210                      5166247.467515022
3215                      5493215.937056003
3220                      5843858.010812142
3225                      6221071.625370388
3230                      6628243.555850804
3235                      7069357.186711689
3240                      7549130.103610556
3245                      8073191.599115646
3250                      8648314.287124846
3255                      9282720.09906765
3260                      9986490.10677734
3265                      1.0772121736662446E7
3270                      1.1655299162359336E7
3275                      1.2655978507219559E7
3280                      1.3799948908572169E7
3285                      1.5121132081817446E7
3290                      1.6665062865980744E7
3295                      1.849432458660361E7
3300                      2.0697352409721646E7
3305                      2.3403319878402047E7
3310                      2.680865105347899E7
3315                      3.122733535741931E7
3320                      3.7194364089206204E7
3325                      4.570169364903233E7
3330                      5.8818620789266415E7
3335                      8.169951833560993E7
3340                      1.3174938634303336E8
3345                      3.2830980393732977E8
3350                      7.150395947283733E8
3355                      1.7395968006014192E8
3360                      9.991094588837595E7
3365                      7.049900415288208E7
3370                      5.470477522056652E7
3375                      4.484483748389131E7
3380                      3.810098218167339E7
3385                      3.319563005373603E7
3390                      2.9465641251499515E7
3395                      2.6532575262578458E7
3400                      2.4164715435687087E7
3405                      2.221224459772845E7
3410                      2.0573998608486738E7
3415                      1.9179199135211166E7
3420                      1.7976841881796088E7
3425                      1.6929241670379903E7
3430                      1.6007951086804941E7
3435                      1.5191093232722724E7
3440                      1.4461568171955522E7
3445                      1.3805816466444265E7
3450                      1.3212947863110434E7
3455                      1.2674115224564303E7
3460                      1.2182056780291712E7
3465                      1.1730756166606916E7
3470                      1.1315186348394781E7
3475                      1.093111422973131E7
3480                      1.0574949810982097E7
3485                      1.0243628477212165E7
3490                      9934518.227960756
3495                      9645345.892975792